! TOUCHSTONE file generated by CST MICROWAVE STUDIO
! Date and time: Fri Oct 24 14:29:36 2014
! Project name: Untitled_0.cst
# GHZ S MA R 50
0.1                   0.00165689        -48.8153      0.000736578         91.2883         0.998855       -0.272071      0.000563897        -92.4051  
                     0.000736578         91.2883       0.00165684        -48.8124      0.000563897         -92.405         0.998855       -0.272104  
                        0.998855        -0.27208      0.000563897         -92.405       0.00165685        -48.8097      0.000736577         91.2879  
                     0.000563897         -92.405         0.998855       -0.272104      0.000736577          91.288       0.00165685        -48.8119  
0.1099                0.00175127        -51.5252      0.000809671         91.3984         0.998845       -0.298915      0.000620544        -92.6246  
                      0.00080967         91.3996       0.00175125        -51.5219      0.000622193         -92.694         0.998845       -0.298948  
                        0.998845        -0.29892      0.000620521        -92.6726       0.00175126        -51.5198      0.000809637         91.3999  
                      0.00062053        -92.6649         0.998845        -0.29895      0.000809642         91.4013       0.00175125         -51.522  
0.1198                0.00184914        -53.9634      0.000882798         91.5137         0.998835       -0.325735        0.0006769        -92.8846  
                     0.000882798         91.5158       0.00184915        -53.9598      0.000678864        -93.0912         0.998835        -0.32577  
                        0.998835       -0.325739      0.000676562        -92.9584       0.00184916        -53.9584      0.000882739         91.5167  
                     0.000676623        -92.9473         0.998835       -0.325773       0.00088275         91.5191       0.00184915        -53.9604  
0.129700008           0.00195001         -56.163       0.00095597         91.6329         0.998825       -0.352534      0.000732759        -93.1604  
                     0.000955972         91.6356       0.00195004        -56.1591      0.000733807        -93.4409         0.998825        -0.35257  
                        0.998825       -0.352536      0.000732013         -93.234       0.00195006        -56.1584      0.000955894         91.6372  
                     0.000732132        -93.2234         0.998825       -0.352574      0.000955912         91.6401       0.00195003        -56.1602  
0.1396                0.00205345        -58.1536        0.0010292          91.755         0.998814        -0.37931      0.000788077        -93.4298  
                      0.00102921         91.7581        0.0020535        -58.1495      0.000787953        -93.7073         0.998814       -0.379348  
                        0.998814        -0.37931      0.000787007         -93.487       0.00205353        -58.1492       0.00102911         91.7603  
                     0.000787167         -93.479         0.998814       -0.379352       0.00102914         91.7636       0.00205349        -58.1508  
0.1495                0.00215912         -59.961        0.0011025         91.8792         0.998802       -0.406064      0.000842942        -93.6801  
                      0.00110251         91.8825       0.00215919        -59.9566      0.000841926        -93.9163         0.998802       -0.406103  
                        0.998802       -0.406063      0.000841701        -93.7162       0.00215922        -59.9569        0.0011024         91.8852  
                     0.000841881        -93.7111         0.998802       -0.406109       0.00110244         91.8887       0.00215917        -59.9582  
0.1594                0.00226674        -61.6076       0.00117587         92.0049          0.99879       -0.432796      0.000897499        -93.9086  
                      0.00117589         92.0083       0.00226682        -61.6031      0.000895954        -94.0949          0.99879       -0.432837  
                         0.99879       -0.432794      0.000896223        -93.9257       0.00226686        -61.6038       0.00117578         92.0114  
                     0.000896406        -93.9232          0.99879       -0.432844       0.00117582         92.0149        0.0022668        -61.6047  
0.1693                0.00237604         -63.113       0.00124933         92.1316         0.998777       -0.459507      0.000951877        -94.1179  
                      0.00124935          92.135       0.00237614        -63.1084      0.000950088        -94.2593         0.998777        -0.45955  
                        0.998777       -0.459504      0.000950659        -94.1209       0.00237618        -63.1095       0.00124924         92.1384  
                     0.000950833        -94.1202         0.998777       -0.459557       0.00124929         92.1418       0.00237611        -63.1101  
0.1792                0.00248684        -64.4942       0.00132289         92.2589         0.998764       -0.486197       0.00100617        -94.3126  
                      0.00132292         92.2622       0.00248694        -64.4895       0.00100432        -94.4179         0.998764       -0.486242  
                        0.998764       -0.486193       0.00100506        -94.3062       0.00248699        -64.4909        0.0013228         92.2658  
                      0.00100522        -94.3067         0.998764       -0.486249       0.00132286         92.2691       0.00248691        -64.4911  
0.1891                0.00259895        -65.7655       0.00139655         92.3865          0.99875       -0.512867       0.00106043        -94.4972  
                      0.00139658         92.3896       0.00259906        -65.7608       0.00105863        -94.5749          0.99875       -0.512914  
                         0.99875       -0.512862       0.00105944        -94.4851       0.00259911        -65.7626       0.00139647         92.3934  
                      0.00105959        -94.4864         0.998751       -0.512921       0.00139653         92.3964       0.00259902        -65.7624  
0.199                 0.00271222        -66.9397       0.00147031          92.514         0.998736       -0.539516        0.0011147        -94.6752  
                      0.00147035         92.5169       0.00271233        -66.9349         0.001113        -94.7323         0.998736       -0.539565  
                        0.998736        -0.53951       0.00111383        -94.6601       0.00271239         -66.937       0.00147024         92.5207  
                      0.00111396        -94.6619         0.998736       -0.539573       0.00147031         92.5236        0.0027123        -66.9364  
0.2089                0.00282653        -68.0276        0.0015442         92.6413         0.998722       -0.566146       0.00116898        -94.8491  
                      0.00154424          92.644       0.00282664        -68.0228       0.00116741        -94.8911         0.998722       -0.566197  
                        0.998722       -0.566139       0.00116822        -94.8329       0.00282671        -68.0252       0.00154414         92.6478  
                      0.00116834        -94.8349         0.998722       -0.566205       0.00154421         92.6503       0.00282661        -68.0242  
0.2188                0.00294177        -69.0387        0.0016182         92.7681         0.998707       -0.592756       0.00122327        -95.0209  
                      0.00161825         92.7706       0.00294188        -69.0339       0.00122184        -95.0517         0.998707       -0.592809  
                        0.998707       -0.592749       0.00122263        -95.0046       0.00294195        -69.0365       0.00161815         92.7743  
                      0.00122272        -95.0066         0.998707       -0.592817       0.00161823         92.7766       0.00294185        -69.0351  
0.2287                0.00305784        -69.9812       0.00169233         92.8944         0.998691       -0.619347       0.00127759        -95.1916  
                      0.00169238         92.8967       0.00305795        -69.9763       0.00127629        -95.2142         0.998692       -0.619403  
                        0.998691        -0.61934       0.00127703        -95.1759       0.00305802        -69.9792       0.00169229         92.9002  
                      0.00127712        -95.1779         0.998692       -0.619411       0.00169237         92.9023       0.00305792        -69.9774  
0.2386                0.00317466        -70.8621       0.00176659         93.0201         0.998676       -0.645919       0.00133192         -95.362  
                      0.00176664         93.0221       0.00317476        -70.8573       0.00133075        -95.3786         0.998676       -0.645978  
                        0.998676       -0.645912       0.00133144        -95.3474       0.00317485        -70.8604       0.00176656         93.0254  
                      0.00133151        -95.3493         0.998676       -0.645986       0.00176664         93.0273       0.00317473        -70.8582  
0.2485                0.00329215        -71.6879       0.00184098         93.1449         0.998659       -0.672473       0.00138625        -95.5327  
                      0.00184104         93.1467       0.00329226         -71.683        0.0013852        -95.5448          0.99866       -0.672535  
                        0.998659       -0.672466       0.00138584        -95.5192       0.00329234        -71.6863       0.00184096         93.1498  
                      0.00138591        -95.5209          0.99866       -0.672542       0.00184104         93.1514       0.00329223        -71.6838  
0.2584                0.00341026        -72.4638       0.00191552         93.2689         0.998643       -0.699009       0.00144059        -95.7038  
                      0.00191557         93.2705       0.00341036         -72.459       0.00143966        -95.7127         0.998643       -0.699074  
                        0.998643       -0.699002       0.00144024        -95.6915       0.00341045        -72.4625        0.0019155         93.2734  
                       0.0014403        -95.6932         0.998643       -0.699081       0.00191558         93.2748       0.00341033        -72.4595  
0.2683                0.00352893        -73.1948       0.00199019          93.392         0.998626       -0.725529       0.00149494        -95.8756  
                      0.00199024         93.3934       0.00352902        -73.1899        0.0014941         -95.882         0.998626       -0.725596  
                        0.998626       -0.725522       0.00149464        -95.8646       0.00352912        -73.1936       0.00199018          93.396  
                      0.00149469        -95.8661         0.998626       -0.725603       0.00199026         93.3972         0.003529        -73.1903  
0.2782                 0.0036481         -73.885         0.002065         93.5141         0.998609       -0.752031       0.00154928        -96.0482  
                      0.00206505         93.5154       0.00364819        -73.8801       0.00154853        -96.0528         0.998609       -0.752101  
                        0.998609       -0.752024       0.00154902        -96.0383       0.00364829         -73.884         0.002065         93.5177  
                      0.00154906        -96.0397         0.998609       -0.752108       0.00206508         93.5187       0.00364816        -73.8803  
0.2881                0.00376773        -74.5382       0.00213996         93.6353         0.998591       -0.778516       0.00160361        -96.2216  
                      0.00214001         93.6364       0.00376781        -74.5333       0.00160294        -96.2248         0.998591       -0.778589  
                        0.998591       -0.778509       0.00160339        -96.2128       0.00376792        -74.5373       0.00213997         93.6385  
                      0.00160342         -96.214         0.998591       -0.778596       0.00214004         93.6393        0.0037678        -74.5333  
0.298                 0.00388779        -75.1577       0.00221507         93.7555         0.998573       -0.804985       0.00165793        -96.3958  
                      0.00221512         93.7564       0.00388786        -75.1528       0.00165734         -96.398         0.998573       -0.805061  
                        0.998573       -0.804979       0.00165774         -96.388       0.00388797        -75.1569       0.00221508         93.7582  
                      0.00165777        -96.3891         0.998573       -0.805068       0.00221515          93.759       0.00388785        -75.1526  
0.3079                0.00400824        -75.7464       0.00229033         93.8747         0.998555       -0.831438       0.00171224        -96.5707  
                      0.00229038         93.8755        0.0040083        -75.7415       0.00171171        -96.5722         0.998555       -0.831518  
                        0.998555       -0.831432       0.00171207        -96.5638       0.00400841        -75.7458       0.00229034          93.877  
                       0.0017121        -96.5648         0.998555       -0.831524       0.00229041         93.8776       0.00400829        -75.7412  
0.3178                0.00412903        -76.3069       0.00236574         93.9929         0.998536       -0.857876       0.00176653        -96.7464  
                      0.00236579         93.9936       0.00412909        -76.3021       0.00176606        -96.7473         0.998536       -0.857958  
                        0.998536        -0.85787       0.00176639        -96.7404        0.0041292        -76.3064       0.00236576         93.9948  
                      0.00176641        -96.7413         0.998536       -0.857964       0.00236582         93.9953       0.00412908        -76.3015  
0.3277                0.00425016        -76.8417       0.00244131         94.1101         0.998517       -0.884298        0.0018208        -96.9229  
                      0.00244135         94.1107        0.0042502        -76.8368       0.00182038        -96.9233         0.998517       -0.884384  
                        0.998517       -0.884292       0.00182068        -96.9175       0.00425032        -76.8413       0.00244132         94.1117  
                       0.0018207        -96.9183         0.998517       -0.884389       0.00244139          94.112        0.0042502        -76.8361  
0.3376                0.00437157        -77.3527       0.00251703         94.2263         0.998497       -0.910705       0.00187505        -97.0999  
                      0.00251707         94.2268       0.00437161        -77.3478       0.00187468        -97.1001         0.998498       -0.910794  
                        0.998497         -0.9107       0.00187494        -97.0953       0.00437173        -77.3523       0.00251705         94.2275  
                      0.00187496         -97.096         0.998498         -0.9108       0.00251711         94.2278       0.00437162        -77.3469  
0.3475                0.00449327        -77.8418       0.00259291         94.3415         0.998478       -0.937098       0.00192927        -97.2776  
                      0.00259295         94.3419        0.0044933        -77.8369       0.00192895        -97.2776         0.998478        -0.93719  
                        0.998478       -0.937093       0.00192919        -97.2736       0.00449342        -77.8416       0.00259293         94.3424  
                       0.0019292        -97.2742         0.998478       -0.937195       0.00259298         94.3426       0.00449331        -77.8359  
0.3574                0.00461521        -78.3108       0.00266895         94.4557         0.998458       -0.963476       0.00198348        -97.4559  
                      0.00266899          94.456       0.00461523        -78.3059       0.00198319        -97.4558         0.998458       -0.963571  
                        0.998458       -0.963472        0.0019834        -97.4524       0.00461535        -78.3106       0.00266897         94.4563  
                      0.00198341         -97.453         0.998458       -0.963576       0.00266902         94.4565       0.00461525        -78.3047  
0.3673                0.00473738        -78.7611       0.00274516         94.5689         0.998437        -0.98984       0.00203765        -97.6347  
                      0.00274519         94.5692       0.00473739        -78.7562        0.0020374        -97.6345         0.998438       -0.989939  
                        0.998437       -0.989836       0.00203758        -97.6317       0.00473752         -78.761       0.00274517         94.5693  
                       0.0020376        -97.6322         0.998438       -0.989943       0.00274522         94.5694       0.00473741        -78.7548  
0.3772                0.00485976        -79.1941       0.00282153         94.6812         0.998416        -1.01619       0.00209179        -97.8141  
                      0.00282156         94.6815       0.00485977        -79.1892       0.00209158        -97.8138         0.998417        -1.01629  
                        0.998416        -1.01619       0.00209174        -97.8115       0.00485989        -79.1941       0.00282154         94.6813  
                      0.00209175        -97.8119         0.998417         -1.0163       0.00282158         94.6814       0.00485979        -79.1877  
0.3871                0.00498234        -79.6111       0.00289806         94.7926         0.998395        -1.04253       0.00214591        -97.9938  
                      0.00289809         94.7928       0.00498233        -79.6062       0.00214572        -97.9935         0.998396        -1.04263  
                        0.998395        -1.04252       0.00214586        -97.9916       0.00498246        -79.6111       0.00289807         94.7924  
                      0.00214587         -97.992         0.998396        -1.04264       0.00289811         94.7924       0.00498237        -79.6045  
0.397                 0.00510509        -80.0132       0.00297476          94.903         0.998374        -1.06885       0.00219999         -98.174  
                      0.00297479         94.9031       0.00510508        -80.0082       0.00219983        -98.1737         0.998374        -1.06896  
                        0.998374        -1.06885       0.00219995        -98.1722       0.00510521        -80.0132       0.00297477         94.9026  
                      0.00219996        -98.1725         0.998374        -1.06896        0.0029748         94.9026       0.00510512        -80.0065  
0.4069                  0.005228        -80.4015       0.00305164         95.0125         0.998352        -1.09516       0.00225404        -98.3546  
                      0.00305166         95.0126       0.00522798        -80.3964        0.0022539        -98.3543         0.998353        -1.09527  
                        0.998352        -1.09516         0.002254         -98.353       0.00522811        -80.4015       0.00305164         95.0119  
                      0.00225401        -98.3533         0.998353        -1.09527       0.00305167         95.0119       0.00522803        -80.3945  
0.4168                0.00535106        -80.7767       0.00312868         95.1211          0.99833        -1.12146       0.00230805        -98.5356  
                       0.0031287         95.1212       0.00535103        -80.7717       0.00230793        -98.5353         0.998331        -1.12157  
                         0.99833        -1.12145       0.00230802        -98.5342       0.00535117        -80.7768       0.00312868         95.1203  
                      0.00230803        -98.5345         0.998331        -1.12157        0.0031287         95.1203       0.00535109        -80.7696  
0.4267                0.00547426        -81.1399        0.0032059         95.2288         0.998308        -1.14774       0.00236203        -98.7168  
                      0.00320591         95.2288       0.00547422        -81.1348       0.00236193        -98.7166         0.998308        -1.14786  
                        0.998308        -1.14774       0.00236201        -98.7158       0.00547435          -81.14       0.00320589         95.2278  
                      0.00236201        -98.7159         0.998308        -1.14786       0.00320591         95.2278       0.00547428        -81.1326  
0.4366                0.00559757        -81.4918       0.00328329         95.3356         0.998285        -1.17401       0.00241597        -98.8984  
                       0.0032833         95.3357       0.00559752        -81.4866       0.00241589        -98.8982         0.998286        -1.17413  
                        0.998285        -1.17401       0.00241595        -98.8975       0.00559766        -81.4918       0.00328328         95.3345  
                      0.00241596        -98.8977         0.998286        -1.17413        0.0032833         95.3345       0.00559759        -81.4843  
0.4465                  0.005721         -81.833       0.00336085         95.4416         0.998262        -1.20027       0.00246987        -99.0803  
                      0.00336087         95.4416       0.00572094        -81.8278       0.00246981        -99.0801         0.998263        -1.20039  
                        0.998262        -1.20027       0.00246986        -99.0796       0.00572108        -81.8331       0.00336084         95.4403  
                      0.00246986        -99.0797         0.998263        -1.20039       0.00336086         95.4403       0.00572101        -81.8254  
0.4564                0.00584452        -82.1643        0.0034386         95.5467         0.998239        -1.22651       0.00252374        -99.2624  
                      0.00343861         95.5467       0.00584445        -82.1591       0.00252369        -99.2622         0.998239        -1.22664  
                        0.998239        -1.22651       0.00252372        -99.2618        0.0058446        -82.1644       0.00343858         95.5453  
                      0.00252373         -99.262         0.998239        -1.22664        0.0034386         95.5453       0.00584454        -82.1566  
0.4663                0.00596813        -82.4863       0.00351653          95.651         0.998215        -1.25275       0.00257756        -99.4447  
                      0.00351653          95.651       0.00596806         -82.481       0.00257752        -99.4446         0.998216        -1.25288  
                        0.998215        -1.25275       0.00257755        -99.4443        0.0059682        -82.4863       0.00351651         95.6495  
                      0.00257756        -99.4444         0.998216        -1.25288       0.00351651         95.6494       0.00596815        -82.4784  
0.4762                0.00609182        -82.7994       0.00359464         95.7544         0.998191        -1.27897       0.00263134        -99.6272  
                      0.00359464         95.7544       0.00609174        -82.7941       0.00263132        -99.6271         0.998192         -1.2791  
                        0.998191        -1.27897       0.00263133         -99.627       0.00609189        -82.7995       0.00359461         95.7528  
                      0.00263134        -99.6271         0.998192         -1.2791       0.00359462         95.7528       0.00609184        -82.7914  
0.4861                0.00621558        -83.1043       0.00367293         95.8571         0.998167        -1.30518       0.00268508          -99.81  
                      0.00367293         95.8571       0.00621549         -83.099       0.00268507        -99.8099         0.998168        -1.30531  
                        0.998167        -1.30517       0.00268508        -99.8098       0.00621564        -83.1044        0.0036729         95.8553  
                      0.00268508        -99.8099         0.998168        -1.30531        0.0036729         95.8553        0.0062156        -83.0962  
0.496                  0.0063394        -83.4014       0.00375141         95.9589         0.998143        -1.33137       0.00273878        -99.9929  
                      0.00375141         95.9589       0.00633931         -83.396       0.00273877        -99.9929         0.998143        -1.33151  
                        0.998143        -1.33137       0.00273877        -99.9928       0.00633946        -83.4014       0.00375137         95.9571  
                      0.00273878        -99.9929         0.998143        -1.33151       0.00375137         95.9571       0.00633942        -83.3931  
0.505900032           0.00646327        -83.6911       0.00383008         96.0599         0.998118        -1.35756       0.00279243        -100.176  
                      0.00383008         96.0599       0.00646317        -83.6856       0.00279243        -100.176         0.998118         -1.3577  
                        0.998118        -1.35756       0.00279243        -100.176       0.00646332        -83.6911       0.00383003         96.0581  
                      0.00279243        -100.176         0.998118         -1.3577       0.00383003         96.0581       0.00646329        -83.6826  
0.5158                0.00658718        -83.9738       0.00390893         96.1602         0.998093        -1.38373       0.00284604        -100.359  
                      0.00390893         96.1602       0.00658708        -83.9683       0.00284605        -100.359         0.998093        -1.38388  
                        0.998093        -1.38373       0.00284604        -100.359       0.00658724        -83.9738       0.00390889         96.1582  
                      0.00284604        -100.359         0.998093        -1.38388       0.00390888         96.1583       0.00658721        -83.9652  
0.525699968           0.00671114        -84.2499       0.00398798         96.2597         0.998067        -1.40989        0.0028996        -100.543  
                      0.00398798         96.2597       0.00671103        -84.2443       0.00289961        -100.543         0.998068        -1.41004  
                        0.998067        -1.40989        0.0028996        -100.543       0.00671118        -84.2499       0.00398793         96.2577  
                       0.0028996        -100.543         0.998068        -1.41004       0.00398792         96.2577       0.00671116        -84.2412  
0.5356                0.00683512        -84.5197       0.00406723         96.3584         0.998041        -1.43604       0.00295312        -100.726  
                      0.00406722         96.3584       0.00683501        -84.5142       0.00295313        -100.726         0.998042        -1.43619  
                        0.998041        -1.43604       0.00295311        -100.726       0.00683516        -84.5197       0.00406717         96.3563  
                      0.00295312        -100.726         0.998042        -1.43619       0.00406716         96.3563       0.00683515        -84.5109  
0.545499968           0.00695913        -84.7836       0.00414666         96.4564         0.998015        -1.46218       0.00300658         -100.91  
                      0.00414666         96.4564       0.00695901         -84.778        0.0030066         -100.91         0.998016        -1.46233  
                        0.998015        -1.46218       0.00300658         -100.91       0.00695917        -84.7836        0.0041466         96.4542  
                      0.00300658         -100.91         0.998016        -1.46233       0.00414659         96.4543       0.00695916        -84.7747  
0.5554                0.00708315        -85.0419        0.0042263         96.5535         0.997989         -1.4883          0.00306        -101.093  
                      0.00422629         96.5536       0.00708303        -85.0363       0.00306003        -101.093          0.99799        -1.48846  
                        0.997989         -1.4883          0.00306        -101.093       0.00708319        -85.0419       0.00422623         96.5514  
                         0.00306        -101.093          0.99799        -1.48846       0.00422622         96.5514       0.00708318        -85.0329  
0.565299968           0.00720718        -85.2949       0.00430613           96.65         0.997962        -1.51442       0.00311337        -101.277  
                      0.00430612           96.65       0.00720706        -85.2892        0.0031134        -101.277         0.997963        -1.51458  
                        0.997962        -1.51442       0.00311337        -101.277       0.00720722        -85.2948       0.00430606         96.6478  
                      0.00311337        -101.277         0.997963        -1.51458       0.00430605         96.6478       0.00720722        -85.2857  
0.5752                0.00733122        -85.5427       0.00438617         96.7457         0.997935        -1.54052       0.00316669        -101.461  
                      0.00438616         96.7457       0.00733109         -85.537       0.00316672        -101.461         0.997936        -1.54069  
                        0.997935        -1.54052       0.00316669        -101.461       0.00733126        -85.5426       0.00438609         96.7435  
                      0.00316669        -101.461         0.997936        -1.54069       0.00438608         96.7435       0.00733126        -85.5334  
0.585099968           0.00745526        -85.7857       0.00446641         96.8407         0.997908        -1.56661       0.00321995        -101.645  