! TOUCHSTONE file generated by CST MICROWAVE STUDIO
! Date and time: Wed Oct 15 13:32:36 2014
! Project name: Untitled_1.cst
# GHZ S MA R 50
0.1                   0.00188838        -5.09635       0.00106167         90.3018          0.99808       -0.231337      0.000682073        -91.0345  
                      0.00106167         90.3018       0.00188831        -5.11337      0.000682074        -91.0345          0.99808        -0.23126  
                         0.99808       -0.231337      0.000682073        -91.0345       0.00188838        -5.09634       0.00106167         90.3021  
                     0.000682074        -91.0345          0.99808        -0.23126       0.00106167         90.3021       0.00188828        -5.11299  
0.1099                 0.0018913        -5.72477       0.00116653         90.4011         0.998072       -0.254076      0.000749448        -91.1795  
                      0.00116652         90.4003       0.00189126        -5.74103      0.000749447          -91.18         0.998072       -0.253988  
                        0.998072       -0.254075      0.000749448        -91.1797       0.00189131        -5.72555       0.00116653         90.4017  
                     0.000749448        -91.1798         0.998072       -0.253988       0.00116652         90.4004       0.00189121        -5.74102  
0.1198                 0.0018941        -6.35325       0.00127144         90.4885         0.998063       -0.276809      0.000816804        -91.3156  
                      0.00127142         90.4871       0.00189408        -6.36876      0.000816801        -91.3164         0.998063        -0.27671  
                        0.998063       -0.276806      0.000816804        -91.3158       0.00189411        -6.35481       0.00127143         90.4892  
                     0.000816803        -91.3161         0.998063       -0.276711       0.00127141          90.487       0.00189401        -6.36913  
0.129700008           0.00189677        -6.98189        0.0013764         90.5667         0.998054       -0.299535       0.00088414        -91.4447  
                      0.00137636         90.5648       0.00189678        -6.99669      0.000884134        -91.4457         0.998054       -0.299426  
                        0.998054       -0.299532      0.000884139         -91.445       0.00189679        -6.98421       0.00137638         90.5676  
                     0.000884138        -91.4454         0.998054       -0.299427       0.00137636         90.5646       0.00189669        -6.99743  
0.1396                0.00189932        -7.61081        0.0014814         90.6377         0.998045       -0.322255      0.000951454        -91.5684  
                      0.00148136         90.6353       0.00189936        -7.62492      0.000951447        -91.5696         0.998045       -0.322136  
                        0.998045       -0.322251      0.000951453        -91.5687       0.00189934        -7.61388       0.00148138         90.6386  
                     0.000951451        -91.5693         0.998045       -0.322137       0.00148135          90.635       0.00189925        -7.62603  
0.1495                0.00190174        -8.24012       0.00158647         90.7027         0.998034       -0.344969       0.00101875        -91.6877  
                      0.00158641            90.7       0.00190181        -8.25355       0.00101874        -91.6891         0.998035       -0.344839  
                        0.998035       -0.344963       0.00101874         -91.688       0.00190177        -8.24392       0.00158643         90.7038  
                      0.00101874        -91.6887         0.998035       -0.344841        0.0015864         90.6996       0.00190168        -8.25504  
0.1594                0.00190404        -8.86992       0.00169158          90.763         0.998024       -0.367676       0.00108601        -91.8034  
                      0.00169151           90.76       0.00190414         -8.8827         0.001086        -91.8049         0.998024       -0.367536  
                        0.998024       -0.367669       0.00108601        -91.8038       0.00190407        -8.87444       0.00169154         90.7642  
                      0.00108601        -91.8045         0.998024       -0.367538        0.0016915         90.7595         0.001904        -8.88457  
0.1693                0.00190622        -9.50033       0.00179675         90.8194         0.998013       -0.390376       0.00115326        -91.9161  
                      0.00179667         90.8161       0.00190635        -9.51248       0.00115324        -91.9178         0.998013       -0.390226  
                        0.998013       -0.390369       0.00115326        -91.9165       0.00190626        -9.50554        0.0017967         90.8206  
                      0.00115325        -91.9174         0.998014       -0.390228       0.00179665         90.8155       0.00190619        -9.51472  
0.1792                0.00190828        -10.1315       0.00190197         90.8724         0.998002       -0.413069       0.00122048        -92.0264  
                      0.00190188         90.8689       0.00190844         -10.143       0.00122046        -92.0283         0.998002       -0.412909  
                        0.998002       -0.413061       0.00122047        -92.0269       0.00190832        -10.1373       0.00190192         90.8737  
                      0.00122047        -92.0278         0.998002       -0.412912       0.00190186         90.8683       0.00190826        -10.1456  
0.1891                0.00191022        -10.7634       0.00200725         90.9226          0.99799       -0.435755       0.00128767        -92.1346  
                      0.00200715         90.9189       0.00191042        -10.7743       0.00128765        -92.1366          0.99799       -0.435585  
                         0.99799       -0.435746       0.00128767        -92.1351       0.00191027          -10.77        0.0020072          90.924  
                      0.00128766        -92.1361          0.99799       -0.435589       0.00200713         90.9182       0.00191021        -10.7773  
0.199                 0.00191204        -11.3963        0.0021126         90.9703         0.997977       -0.458434       0.00135483        -92.2411  
                      0.00211248         90.9666       0.00191227        -11.4066       0.00135482        -92.2431         0.997978       -0.458255  
                        0.997977       -0.458424       0.00135483        -92.2416        0.0019121        -11.4035       0.00211253         90.9719  
                      0.00135483        -92.2426         0.997978       -0.458258       0.00211246         90.9659       0.00191205          -11.41  
0.2089                0.00191374        -12.0301         0.002218          91.016         0.997965       -0.481106       0.00142197         -92.346  
                      0.00221787         91.0121       0.00191401        -12.0399       0.00142195        -92.3482         0.997965       -0.480917  
                        0.997965       -0.481095       0.00142197        -92.3466       0.00191381         -12.038       0.00221793         91.0177  
                      0.00142196        -92.3476         0.997966       -0.480921       0.00221784         91.0114       0.00191377        -12.0437  
0.2188                0.00191533        -12.6652       0.00232346         91.0599         0.997951        -0.50377       0.00148908        -92.4497  
                      0.00232332         91.0559       0.00191564        -12.6744       0.00148906        -92.4518         0.997952       -0.503571  
                        0.997952       -0.503759       0.00148907        -92.4502        0.0019154        -12.6736       0.00232338         91.0616  
                      0.00148907        -92.4512         0.997952       -0.503576       0.00232329         91.0552       0.00191538        -12.6785  
0.2287                0.00191681        -13.3014       0.00242898         91.1022         0.997938       -0.526427       0.00155616        -92.5521  
                      0.00242883         91.0981       0.00191715        -13.3101       0.00155613        -92.5544         0.997939       -0.526218  
                        0.997938       -0.526415       0.00155615        -92.5527       0.00191688        -13.3105        0.0024289          91.104  
                      0.00155614        -92.5538         0.997939       -0.526223        0.0024288         91.0973       0.00191687        -13.3146  
0.2386                0.00191817         -13.939       0.00253457          91.143         0.997924       -0.549076        0.0016232        -92.6536  
                      0.00253441         91.1389       0.00191855        -13.9471       0.00162317        -92.6559         0.997925       -0.548858  
                        0.997924       -0.549063        0.0016232        -92.6542       0.00191825        -13.9487       0.00253449         91.1449  
                      0.00162319        -92.6553         0.997925       -0.548863       0.00253438         91.1381       0.00191825        -13.9521  
0.2485                0.00191943         -14.578       0.00264023         91.1826         0.997909       -0.571717       0.00169022        -92.7542  
                      0.00264005         91.1784       0.00191984        -14.5856       0.00169019        -92.7565          0.99791        -0.57149  
                        0.997909       -0.571703       0.00169021        -92.7548       0.00191951        -14.5883       0.00264014         91.1845  
                       0.0016902        -92.7559          0.99791       -0.571495       0.00264002         91.1777       0.00191953         -14.591  
0.2584                0.00192057        -15.2186       0.00274595         91.2211         0.997894        -0.59435        0.0017572        -92.8539  
                      0.00274576         91.2168       0.00192103        -15.2257       0.00175717        -92.8563         0.997895       -0.594113  
                        0.997894       -0.594336       0.00175719        -92.8546       0.00192066        -15.2295       0.00274585         91.2231  
                      0.00175718        -92.8557         0.997896       -0.594119       0.00274573         91.2161       0.00192069        -15.2314  
0.2683                 0.0019216        -15.8608       0.00285174         91.2586         0.997879       -0.616975       0.00182414         -92.953  
                      0.00285154         91.2543        0.0019221        -15.8674       0.00182411        -92.9554          0.99788       -0.616729  
                        0.997879        -0.61696       0.00182414        -92.9536        0.0019217        -15.8722       0.00285164         91.2606  
                      0.00182413        -92.9548          0.99788       -0.616735        0.0028515         91.2536       0.00192175        -15.8735  
0.2782                0.00192254        -16.5048        0.0029576         91.2951         0.997863       -0.639592       0.00189106        -93.0515  
                      0.00295739         91.2908       0.00192307        -16.5108       0.00189102        -93.0539         0.997864       -0.639337  
                        0.997863       -0.639576       0.00189105        -93.0521       0.00192264        -16.5167       0.00295749         91.2972  
                      0.00189104        -93.0532         0.997865       -0.639343       0.00295735         91.2901        0.0019227        -16.5174  
0.2881                0.00192336        -17.1505       0.00306353         91.3308         0.997846         -0.6622       0.00195793        -93.1493  
                      0.00306331         91.3264       0.00192394        -17.1561       0.00195789        -93.1518         0.997848       -0.661936  
                        0.997847       -0.662184       0.00195793          -93.15       0.00192347        -17.1631       0.00306342         91.3329  
                      0.00195791        -93.1511         0.997848       -0.661943       0.00306327         91.3258       0.00192355        -17.1631  
0.298                 0.00192409        -17.7983       0.00316953         91.3657          0.99783         -0.6848       0.00202477        -93.2467  
                       0.0031693         91.3613       0.00192471        -17.8033       0.00202473        -93.2492         0.997831       -0.684527  
                         0.99783       -0.684783       0.00202476        -93.2473        0.0019242        -17.8113       0.00316942         91.3679  
                      0.00202475        -93.2485         0.997832       -0.684534       0.00316926         91.3607        0.0019243        -17.8107  
0.3079                0.00192471         -18.448       0.00327561         91.3999         0.997813       -0.707391       0.00209157        -93.3435  
                      0.00327537         91.3956       0.00192538        -18.4525       0.00209153         -93.346         0.997814        -0.70711  
                        0.997813       -0.707374       0.00209156        -93.3442       0.00192483        -18.4616       0.00327549         91.4022  
                      0.00209155        -93.3453         0.997815       -0.707117       0.00327532          91.395       0.00192495        -18.4604  
0.3178                0.00192524        -19.0999       0.00338176         91.4335         0.997795       -0.729974       0.00215833        -93.4399  
                      0.00338151         91.4291       0.00192595        -19.1039       0.00215829        -93.4425         0.997797       -0.729684  
                        0.997795       -0.729956       0.00215833        -93.4406       0.00192536         -19.114       0.00338164         91.4358  
                      0.00215831        -93.4418         0.997797       -0.729691       0.00338146         91.4285        0.0019255        -19.1122  
0.3277                0.00192567         -19.754       0.00348799         91.4664         0.997777       -0.752547       0.00222506         -93.536  
                      0.00348772         91.4621       0.00192643        -19.7575       0.00222501        -93.5385         0.997779       -0.752249  
                        0.997777       -0.752529       0.00222505        -93.5367        0.0019258        -19.7686       0.00348786         91.4688  
                      0.00222503        -93.5378         0.997779       -0.752257       0.00348767         91.4615       0.00192596        -19.7662  
0.3376                0.00192601        -20.4104       0.00359429         91.4988         0.997759       -0.775112       0.00229174        -93.6316  
                      0.00359402         91.4945       0.00192682        -20.4134       0.00229169        -93.6342         0.997761       -0.774805  
                        0.997759       -0.775093       0.00229173        -93.6323       0.00192615        -20.4255       0.00359416         91.5012  
                      0.00229172        -93.6335         0.997761       -0.774813       0.00359396         91.4939       0.00192633        -20.4226  
0.3475                0.00192626        -21.0692       0.00370068         91.5306          0.99774       -0.797668       0.00235838        -93.7269  
                      0.00370039         91.5263       0.00192711        -21.0718       0.00235833        -93.7295         0.997742       -0.797352  
                         0.99774       -0.797648       0.00235837        -93.7276        0.0019264        -21.0848       0.00370054         91.5331  
                      0.00235835        -93.7288         0.997742       -0.797361       0.00370034         91.5258       0.00192661        -21.0814  
0.3574                0.00192642        -21.7306       0.00380714          91.562         0.997721       -0.820214       0.00242498        -93.8219  
                      0.00380684         91.5577       0.00192732        -21.7326       0.00242493        -93.8245         0.997723        -0.81989  
                        0.997721       -0.820194       0.00242497        -93.8226       0.00192657        -21.7466         0.003807         91.5645  
                      0.00242495        -93.8238         0.997723       -0.819899       0.00380679         91.5573        0.0019268        -21.7427  
0.3673                 0.0019265        -22.3945       0.00391369         91.5929         0.997701       -0.842751       0.00249153        -93.9167  
                      0.00391338         91.5886       0.00192745         -22.396       0.00249148        -93.9192         0.997703       -0.842419  
                        0.997701       -0.842731       0.00249152        -93.9174       0.00192665         -22.411       0.00391355         91.5955  
                       0.0024915        -93.9185         0.997703       -0.842428       0.00391332         91.5882       0.00192691        -22.4066  
0.3772                0.00192649        -23.0612       0.00402032         91.6233         0.997681       -0.865279       0.00255804        -94.0111  
                         0.00402          91.619       0.00192749        -23.0621       0.00255798        -94.0137         0.997683       -0.864938  
                        0.997681       -0.865258       0.00255803        -94.0118       0.00192664        -23.0781       0.00402017         91.6259  
                      0.00255801        -94.0129         0.997683       -0.864948       0.00401994         91.6187       0.00192693        -23.0732  
0.3871                 0.0019264        -23.7306       0.00412703         91.6533          0.99766       -0.887797        0.0026245        -94.1052  
                       0.0041267         91.6491       0.00192745         -23.731       0.00262445        -94.1078         0.997663       -0.887448  
                        0.997661       -0.887776       0.00262449         -94.106       0.00192656         -23.748       0.00412688          91.656  
                      0.00262447        -94.1071         0.997663       -0.887458       0.00412664         91.6488       0.00192687        -23.7426  
0.397                 0.00192624        -24.4029       0.00423383         91.6829         0.997639       -0.910305       0.00269092        -94.1992  
                      0.00423349         91.6787       0.00192734        -24.4028       0.00269086        -94.2018         0.997642       -0.909948  
                         0.99764       -0.910284       0.00269091        -94.1999        0.0019264        -24.4208       0.00423368         91.6856  
                      0.00269089         -94.201         0.997642       -0.909958       0.00423342         91.6784       0.00192674        -24.4148  
0.4069                  0.001926        -25.0782       0.00434071         91.7121         0.997618       -0.932803       0.00275729        -94.2928  
                      0.00434036         91.7079       0.00192715        -25.0775       0.00275723        -94.2955          0.99762       -0.932438  
                        0.997618       -0.932782       0.00275728        -94.2936       0.00192616        -25.0965       0.00434056         91.7149  
                      0.00275726        -94.2947         0.997621       -0.932449       0.00434029         91.7077       0.00192654          -25.09  
0.4168                0.00192568        -25.7565       0.00444768         91.7409         0.997596       -0.955292       0.00282361        -94.3863  
                      0.00444732         91.7368       0.00192689        -25.7552       0.00282355        -94.3889         0.997599       -0.954919  
                        0.997597        -0.95527        0.0028236        -94.3871       0.00192585        -25.7752       0.00444753         91.7438  
                      0.00282358        -94.3881         0.997599        -0.95493       0.00444725         91.7367       0.00192626        -25.7683  
0.4267                 0.0019253         -26.438       0.00455474         91.7694         0.997574       -0.977771       0.00288989        -94.4796  
                      0.00455438         91.7653       0.00192656        -26.4361       0.00288982        -94.4822         0.997577        -0.97739  
                        0.997574       -0.977748       0.00288987        -94.4803       0.00192548        -26.4571       0.00455459         91.7723  
                      0.00288985        -94.4814         0.997577       -0.977401        0.0045543         91.7652       0.00192591        -26.4497  
0.4366                0.00192486        -27.1227        0.0046619         91.7976         0.997551        -1.00024       0.00295611        -94.5726  
                      0.00466152         91.7935       0.00192617        -27.1202       0.00295604        -94.5752         0.997554       -0.999851  
                        0.997552        -1.00022        0.0029561        -94.5734       0.00192504        -27.1422       0.00466174         91.8005  
                      0.00295607        -94.5744         0.997554       -0.999862       0.00466144         91.7935        0.0019255        -27.1344  
0.4465                0.00192435        -27.8107       0.00476914         91.8254         0.997528         -1.0227       0.00302228        -94.6655  
                      0.00476875         91.8214       0.00192572        -27.8076       0.00302221        -94.6681         0.997531         -1.0223  
                        0.997529        -1.02267       0.00302227        -94.6663       0.00192453        -27.8307       0.00476898         91.8284  
                      0.00302224        -94.6673         0.997532        -1.02231       0.00476868         91.8213       0.00192503        -27.8223  
0.4564                0.00192378        -28.5021       0.00487648         91.8529         0.997505        -1.04515        0.0030884        -94.7582  
                      0.00487608         91.8489        0.0019252        -28.4984       0.00308833        -94.7608         0.997508        -1.04474  
                        0.997505        -1.04512       0.00308839        -94.7589       0.00192397        -28.5225       0.00487631         91.8559  
                      0.00308836          -94.76         0.997508        -1.04475         0.004876         91.8489        0.0019245        -28.5136  
0.4663                0.00192315         -29.197       0.00498391           91.88         0.997481        -1.06758       0.00315446        -94.8507  
                       0.0049835         91.8761       0.00192464        -29.1926       0.00315439        -94.8533         0.997484        -1.06717  
                        0.997482        -1.06756       0.00315445        -94.8514       0.00192335        -29.2178       0.00498374         91.8831  
                      0.00315443        -94.8525         0.997484        -1.06718       0.00498342         91.8762       0.00192392        -29.2084  
0.4762                0.00192248        -29.8954       0.00509143         91.9069         0.997457        -1.09001       0.00322048         -94.943  
                      0.00509102          91.903       0.00192402        -29.8904        0.0032204        -94.9456          0.99746        -1.08959  
                        0.997457        -1.08999       0.00322046        -94.9438       0.00192267        -29.9166       0.00509126           91.91  
                      0.00322044        -94.9448          0.99746         -1.0896       0.00509093         91.9032       0.00192328        -29.9068  
0.4861                0.00192175        -30.5975       0.00519905         91.9335         0.997432        -1.11243       0.00328643        -95.0352  
                      0.00519863         91.9297       0.00192335        -30.5918       0.00328636        -95.0377         0.997435          -1.112  
                        0.997433         -1.1124       0.00328642        -95.0359       0.00192195        -30.6191       0.00519888         91.9366  
                       0.0032864        -95.0369         0.997436        -1.11201       0.00519855         91.9298        0.0019226        -30.6088  
0.496                 0.00192098        -31.3034       0.00530677         91.9598         0.997407        -1.13483       0.00335234        -95.1272  
                      0.00530634          91.956       0.00192264        -31.2969       0.00335226        -95.1297         0.997411         -1.1344  
                        0.997408        -1.13481       0.00335232         -95.128       0.00192119        -31.3253        0.0053066          91.963  
                       0.0033523        -95.1289         0.997411        -1.13441       0.00530625         91.9562       0.00192187        -31.3145  
0.505900032           0.00192017         -32.013       0.00541459         91.9858         0.997382        -1.15723       0.00341818         -95.219  
                      0.00541415          91.982       0.00192189        -32.0057        0.0034181        -95.2216         0.997385        -1.15678  
                        0.997382         -1.1572       0.00341817        -95.2198       0.00192038        -32.0353       0.00541442          91.989  
                      0.00341814        -95.2208         0.997386         -1.1568       0.00541406         91.9823        0.0019211         -32.024  
0.5158                0.00191932        -32.7265       0.00552251         92.0115         0.997356        -1.17961       0.00348397        -95.3107  
                      0.00552206         92.0078        0.0019211        -32.7184       0.00348389        -95.3133         0.997359        -1.17916  
                        0.997357        -1.17958       0.00348395        -95.3115       0.00191953        -32.7492       0.00552233         92.0148  
                      0.00348393        -95.3125          0.99736        -1.17917       0.00552197         92.0081        0.0019203        -32.7374  
0.525699968           0.00191844        -33.4439       0.00563053         92.0369          0.99733        -1.20198        0.0035497        -95.4023  
                      0.00563007         92.0333       0.00192027        -33.4351       0.00354961        -95.4048         0.997333        -1.20153  
                        0.997331        -1.20196       0.00354968        -95.4031       0.00191865         -33.467       0.00563035         92.0403  
                      0.00354965         -95.404         0.997334        -1.20154       0.00562998         92.0337       0.00191946        -33.4547  
0.5356                0.00191752        -34.1654       0.00573865         92.0621         0.997303        -1.22434       0.00361537        -95.4937  
                      0.00573818         92.0585       0.00191942        -34.1557       0.00361528        -95.4962         0.997307        -1.22388  
                        0.997304        -1.22432       0.00361535        -95.4945       0.00191775        -34.1889       0.00573847         92.0655  
                      0.00361532        -95.4954         0.997307        -1.22389       0.00573809          92.059       0.00191859         -34.176  
0.545499968           0.00191658         -34.891       0.00584687          92.087         0.997276        -1.24669       0.00368098        -95.5849  
                       0.0058464         92.0835       0.00191855        -34.8804       0.00368089        -95.5874          0.99728        -1.24622  
                        0.997277        -1.24667       0.00368096        -95.5857       0.00191681        -34.9148        0.0058467         92.0904  
                      0.00368093        -95.5866          0.99728        -1.24624        0.0058463          92.084        0.0019177        -34.9014  
0.5554                0.00191562        -35.6207        0.0059552         92.1117         0.997249        -1.26903       0.00374652         -95.676  
                      0.00595472         92.1082       0.00191765        -35.6093       0.00374644        -95.6785         0.997253        -1.26855  
                         0.99725        -1.26901       0.00374651        -95.6768       0.00191585        -35.6449       0.00595503         92.1151  
                      0.00374648        -95.6777         0.997253        -1.26857       0.00595462         92.1088       0.00191679        -35.6309  
0.565299968           0.00191465        -36.3547       0.00606364         92.1361         0.997221        -1.29136       0.00381201         -95.767  
                      0.00606315         92.1327       0.00191673        -36.3423       0.00381192        -95.7695         0.997225        -1.29087  
                        0.997222        -1.29133       0.00381199        -95.7678       0.00191488        -36.3792       0.00606346         92.1396  
                      0.00381196        -95.7687         0.997226        -1.29089       0.00606305         92.1333       0.00191586        -36.3646  
0.5752                0.00191366         -37.093       0.00617218         92.1603         0.997193        -1.31367       0.00387743        -95.8578  
                      0.00617168         92.1569       0.00191581        -37.0796       0.00387734        -95.8603         0.997197        -1.31318  
                        0.997194        -1.31365       0.00387742        -95.8586        0.0019139        -37.1178         0.006172         92.1638  
                      0.00387738        -95.8595         0.997198         -1.3132       0.00617158         92.1575       0.00191492        -37.1026  
0.585099968           0.00191266        -37.8356       0.00628083         92.1842         0.997165        -1.33598       0.00394279        -95.9485  