! TOUCHSTONE file generated by CST MICROWAVE STUDIO
! Date and time: Thu Oct 16 10:40:51 2014
! Project name: Untitled_1.cst
# GHZ S MA R 50
0.1                   0.00197597         -18.104       0.00102581         90.6212         0.998088        -0.22839      0.000641627        -91.4694  
                      0.00102581         90.6212       0.00197733        -18.2607      0.000641627        -91.4697         0.998088        -0.22859  
                        0.998088        -0.22839      0.000641627        -91.4697       0.00197592        -18.1045        0.0010258         90.6199  
                     0.000641627        -91.4694         0.998088        -0.22859        0.0010258         90.6199       0.00197725        -18.2611  
0.1099                0.00199522        -19.8245       0.00112771         90.7001         0.998082       -0.250844      0.000704764         -91.611  
                      0.00112771         90.7001       0.00199691        -19.9927      0.000704766        -91.6112         0.998082       -0.251064  
                        0.998082       -0.250844      0.000704765        -91.6113       0.00199517         -19.824       0.00112772         90.6982  
                     0.000704765         -91.611         0.998082       -0.251064       0.00112771         90.6983       0.00199685        -19.9919  
0.1198                0.00201598        -21.5135       0.00122966         90.7749         0.998076       -0.273294      0.000767884         -91.751  
                      0.00122966         90.7749       0.00201803        -21.6923      0.000767888        -91.7511         0.998076       -0.273535  
                        0.998076       -0.273294      0.000767887        -91.7513       0.00201594        -21.5119       0.00122967         90.7726  
                     0.000767886         -91.751         0.998076       -0.273534       0.00122966         90.7727       0.00201798        -21.6903  
0.129700008           0.00203822        -23.1694       0.00133165         90.8466         0.998069       -0.295741      0.000830988        -91.8897  
                      0.00133165         90.8466       0.00204064        -23.3582      0.000830994        -91.8898         0.998069       -0.296002  
                        0.998069        -0.29574      0.000830993          -91.89       0.00203817        -23.1668       0.00133167         90.8438  
                     0.000830991        -91.8898         0.998069          -0.296       0.00133165          90.844        0.0020406        -23.3551  
0.1396                0.00206187        -24.7912       0.00143368         90.9157         0.998063       -0.318183      0.000894074        -92.0274  
                      0.00143368         90.9157        0.0020647        -24.9892      0.000894081        -92.0276         0.998062       -0.318465  
                        0.998063       -0.318183       0.00089408        -92.0277       0.00206183        -24.7877       0.00143372         90.9126  
                     0.000894078        -92.0275         0.998062       -0.318462       0.00143368         90.9129       0.00206465         -24.985  
0.1495                 0.0020869        -26.3781       0.00153576         90.9828         0.998055       -0.340622       0.00095714        -92.1643  
                      0.00153576         90.9829       0.00209014        -26.5844       0.00095715        -92.1645         0.998055       -0.340924  
                        0.998055       -0.340621      0.000957148        -92.1647       0.00208685        -26.3737        0.0015358         90.9794  
                     0.000957145        -92.1645         0.998055        -0.34092       0.00153576         90.9797        0.0020901        -26.5792  
0.1594                0.00211325        -27.9293       0.00163789         91.0483         0.998048       -0.363057       0.00102019        -92.3005  
                      0.00163789         91.0483       0.00211693        -28.1433        0.0010202        -92.3007         0.998048       -0.363378  
                        0.998048       -0.363056        0.0010202         -92.301       0.00211319        -27.9241       0.00163794         91.0445  
                      0.00102019        -92.3008         0.998047       -0.363375       0.00163789         91.0449       0.00211689        -28.1372  
0.1693                0.00214088        -29.4445       0.00174007         91.1123          0.99804       -0.385487       0.00108321        -92.4362  
                      0.00174007         91.1123       0.00214501        -29.6653       0.00108323        -92.4364          0.99804       -0.385829  
                         0.99804       -0.385486       0.00108322        -92.4367        0.0021408        -29.4386       0.00174013         91.1083  
                      0.00108322        -92.4365          0.99804       -0.385825       0.00174007         91.1087       0.00214496        -29.6584  
0.1792                0.00216973        -30.9233        0.0018423         91.1751         0.998032       -0.407914       0.00114622        -92.5715  
                       0.0018423         91.1752       0.00217433        -31.1504       0.00114623        -92.5717         0.998032       -0.408276  
                        0.998032       -0.407912       0.00114623        -92.5719       0.00216964        -30.9168       0.00184237         91.1708  
                      0.00114623        -92.5717         0.998031       -0.408271        0.0018423         91.1713       0.00217427        -31.1427  
0.1891                0.00219975        -32.3659       0.00194459          91.237         0.998023       -0.430335        0.0012092        -92.7063  
                      0.00194459          91.237       0.00220484        -32.5984       0.00120922        -92.7065         0.998023       -0.430718  
                        0.998023       -0.430333       0.00120921        -92.7068       0.00219965        -32.3587       0.00194466         91.2324  
                      0.00120921        -92.7066         0.998023       -0.430712       0.00194459         91.2329       0.00220477          -32.59  
0.199                 0.00223091        -33.7721       0.00204694         91.2979         0.998014       -0.452753       0.00127216        -92.8408  
                      0.00204693         91.2979       0.00223649        -34.0095       0.00127218         -92.841         0.998014       -0.453156  
                        0.998014       -0.452751       0.00127217        -92.8413       0.00223078        -33.7644       0.00204702         91.2931  
                      0.00127217         -92.841         0.998014       -0.453149       0.00204693         91.2936       0.00223641        -34.0005  
0.2089                0.00226314        -35.1423       0.00214934          91.358         0.998005       -0.475166       0.00133509        -92.9749  
                      0.00214933         91.3581       0.00226923        -35.3839       0.00133511        -92.9752         0.998005       -0.475589  
                        0.998005       -0.475163       0.00133511        -92.9755         0.002263        -35.1342       0.00214943          91.353  
                       0.0013351        -92.9752         0.998005       -0.475582       0.00214934         91.3536       0.00226913        -35.3743  
0.2188                0.00229641        -36.4767       0.00225181         91.4174         0.997996       -0.497574         0.001398        -93.1088  
                       0.0022518         91.4175       0.00230301         -36.722       0.00139802        -93.1091         0.997996       -0.498017  
                        0.997996       -0.497571       0.00139802        -93.1094       0.00229624        -36.4683        0.0022519         91.4122  
                      0.00139801        -93.1091         0.997995        -0.49801        0.0022518         91.4128        0.0023029         -36.712  
0.2287                0.00233066         -37.776       0.00235433         91.4762         0.997986       -0.519978       0.00146088        -93.2425  
                      0.00235433         91.4763       0.00233779        -38.0243       0.00146091        -93.2427         0.997986       -0.520441  
                        0.997986       -0.519975        0.0014609        -93.2431       0.00233047        -37.7672       0.00235443         91.4708  
                      0.00146089        -93.2428         0.997986       -0.520433       0.00235433         91.4714       0.00233766        -38.0139  
0.2386                0.00236586        -39.0405       0.00245693         91.5345         0.997976       -0.542376       0.00152374        -93.3759  
                      0.00245692         91.5345       0.00237353        -39.2914       0.00152376        -93.3762         0.997976        -0.54286  
                        0.997976       -0.542373       0.00152376        -93.3765       0.00236564        -39.0315       0.00245703         91.5289  
                      0.00152375        -93.3762         0.997976       -0.542851       0.00245692         91.5295       0.00237337        -39.2806  
0.2485                0.00240195        -40.2711       0.00255959         91.5922         0.997966        -0.56477       0.00158657        -93.5091  
                      0.00255958         91.5923       0.00241017         -40.524       0.00158659        -93.5094         0.997966       -0.565274  
                        0.997966       -0.564767       0.00158659        -93.5098       0.00240171        -40.2619        0.0025597         91.5864  
                      0.00158658        -93.5095         0.997965       -0.565265       0.00255958         91.5871       0.00240999        -40.5129  
0.2584                0.00243891        -41.4682       0.00266232         91.6494         0.997955       -0.587159       0.00164936        -93.6422  
                      0.00266231         91.6495       0.00244767        -41.7227       0.00164939        -93.6425         0.997955       -0.587683  
                        0.997955       -0.587155       0.00164939        -93.6429       0.00243864         -41.459       0.00266244         91.6434  
                      0.00164938        -93.6425         0.997955       -0.587673       0.00266231         91.6442       0.00244747        -41.7115  
0.2683                0.00247669        -42.6328       0.00276512         91.7062         0.997944       -0.609542       0.00171213         -93.775  
                      0.00276512         91.7063       0.00248601        -42.8885       0.00171216        -93.7754         0.997944       -0.610087  
                        0.997944       -0.609539       0.00171216        -93.7758       0.00247639        -42.6235       0.00276525         91.7001  
                      0.00171215        -93.7754         0.997944       -0.610076       0.00276512         91.7008       0.00248578        -42.8771  
0.2782                0.00251524        -43.7656         0.002868         91.7626         0.997933       -0.631921       0.00177487        -93.9077  
                      0.00286799         91.7627       0.00252513         -44.022        0.0017749        -93.9081         0.997933       -0.632485  
                        0.997933       -0.631917       0.00177489        -93.9085       0.00251492        -43.7562       0.00286813         91.7563  
                      0.00177489        -93.9081         0.997933       -0.632474       0.00286799          91.757       0.00252487        -44.0106  
0.2881                0.00255455        -44.8674       0.00297095         91.8186         0.997922       -0.654294       0.00183758        -94.0403  
                      0.00297094         91.8186       0.00256499        -45.1242       0.00183761        -94.0407         0.997921       -0.654879  
                        0.997922        -0.65429        0.0018376        -94.0411        0.0025542        -44.8581       0.00297108         91.8121  
                      0.00183759        -94.0406         0.997921       -0.654867       0.00297094         91.8129       0.00256471        -45.1128  
0.298                 0.00259456         -45.939       0.00307398         91.8742          0.99791       -0.676662       0.00190025        -94.1727  
                      0.00307397         91.8743       0.00260557        -46.1959       0.00190029        -94.1731          0.99791       -0.677267  
                         0.99791       -0.676658       0.00190028        -94.1735       0.00259418        -45.9299       0.00307412         91.8675  
                      0.00190027        -94.1731         0.997909       -0.677254       0.00307397         91.8683       0.00260527        -46.1846  
0.3079                0.00263524        -46.9814       0.00317709         91.9295         0.997898       -0.699024       0.00196289         -94.305  
                      0.00317708         91.9295       0.00264683        -47.2381       0.00196293        -94.3054         0.997898       -0.699649  
                        0.997898        -0.69902       0.00196292        -94.3058       0.00263483        -46.9724       0.00317723         91.9226  
                      0.00196291        -94.3054         0.997897       -0.699636       0.00317708         91.9235        0.0026465        -47.2269  
0.3178                0.00267657        -47.9954       0.00328029         91.9844         0.997885       -0.721381        0.0020255        -94.4371  
                      0.00328027         91.9845       0.00268874        -48.2515       0.00202553        -94.4376         0.997885       -0.722026  
                        0.997885       -0.721376       0.00202553         -94.438       0.00267613        -47.9866       0.00328043         91.9774  
                      0.00202551        -94.4375         0.997885       -0.722013       0.00328027         91.9783       0.00268837        -48.2405  
0.3277                0.00271851        -48.9818       0.00338356          92.039         0.997873       -0.743732       0.00208807        -94.5692  
                      0.00338355         92.0391       0.00273126        -49.2372       0.00208811        -94.5697         0.997872       -0.744398  
                        0.997872       -0.743727        0.0020881        -94.5701       0.00271804        -48.9733       0.00338371         92.0319  
                      0.00208809        -94.5695         0.997872       -0.744383       0.00338354         92.0327       0.00273086        -49.2264  
0.3376                0.00276103        -49.9416       0.00348692         92.0933          0.99786       -0.766077        0.0021506        -94.7011  
                      0.00348691         92.0934       0.00277436         -50.196       0.00215064        -94.7016         0.997859       -0.766763  
                        0.997859       -0.766073       0.00215063         -94.702       0.00276053        -49.9334       0.00348707          92.086  
                      0.00215062        -94.7015         0.997859       -0.766748        0.0034869         92.0869       0.00277394        -50.1855  
0.3475                 0.0028041        -50.8756       0.00359037         92.1473         0.997846       -0.788417        0.0022131        -94.8329  
                      0.00359036         92.1474       0.00281802        -51.1288       0.00221314        -94.8334         0.997846       -0.789123  
                        0.997846       -0.788412       0.00221313        -94.8338       0.00280357        -50.8677       0.00359052         92.1399  
                      0.00221312        -94.8333         0.997846       -0.789107       0.00359035         92.1408       0.00281756        -51.1186  
0.3574                 0.0028477        -51.7847       0.00369391          92.201         0.997833        -0.81075       0.00227556        -94.9646  
                      0.00369389         92.2011        0.0028622        -52.0365       0.00227561        -94.9651         0.997833       -0.811476  
                        0.997833       -0.810745       0.00227559        -94.9655       0.00284714        -51.7771       0.00369406         92.1934  
                      0.00227558         -94.965         0.997832        -0.81146       0.00369388         92.1944       0.00286172        -52.0266  
0.3673                 0.0028918        -52.6697       0.00379754         92.2544         0.997819       -0.833078       0.00233798        -95.0962  
                      0.00379752         92.2545       0.00290689        -52.9199       0.00233803        -95.0968         0.997819       -0.833824  
                        0.997819       -0.833073       0.00233802        -95.0971       0.00289121        -52.6625       0.00379769         92.2467  
                        0.002338        -95.0965         0.997818       -0.833808       0.00379751         92.2476       0.00290638        -52.9104  
0.3772                0.00293638        -53.5314       0.00390126         92.3075         0.997805         -0.8554       0.00240037        -95.2276  
                      0.00390125         92.3076       0.00295206        -53.7799       0.00240041        -95.2283         0.997804       -0.856166  
                        0.997804       -0.855394        0.0024004        -95.2286       0.00293576        -53.5246       0.00390142         92.2997  
                      0.00240039         -95.228         0.997804       -0.856149       0.00390123         92.3007       0.00295151        -53.7708  
0.3871                0.00298141        -54.3706       0.00400508         92.3604          0.99779       -0.877715       0.00246271         -95.359  
                      0.00400506         92.3605       0.00299768        -54.6172       0.00246276        -95.3597          0.99779       -0.878501  
                         0.99779        -0.87771       0.00246274          -95.36       0.00298076        -54.3643       0.00400524         92.3524  
                      0.00246273        -95.3594         0.997789       -0.878483       0.00400505         92.3534        0.0029971        -54.6086  
0.397                 0.00302687        -55.1882       0.00410899          92.413         0.997775       -0.900024       0.00252501        -95.4903  
                      0.00410898         92.4131       0.00304373        -55.4328       0.00252506        -95.4909         0.997775        -0.90083  
                        0.997775       -0.900018       0.00252504        -95.4913       0.00302618        -55.1823       0.00410915         92.4049  
                      0.00252503        -95.4907         0.997775       -0.900812       0.00410896         92.4059       0.00304312        -55.4247  
0.4069                0.00307274        -55.9848       0.00421301         92.4653          0.99776       -0.922327       0.00258727        -95.6214  
                      0.00421299         92.4654       0.00309019        -56.2273       0.00258732        -95.6221          0.99776       -0.923153  
                         0.99776       -0.922321        0.0025873        -95.6225       0.00307202        -55.9794       0.00421317         92.4571  
                      0.00258729        -95.6218          0.99776       -0.923134       0.00421297         92.4581       0.00308955        -56.2197  
0.4168                  0.003119        -56.7612       0.00431712         92.5174         0.997745       -0.944623       0.00264948        -95.7525  
                      0.00431711         92.5174       0.00313704        -57.0015       0.00264953        -95.7532         0.997745       -0.945469  
                        0.997745       -0.944617       0.00264952        -95.7536       0.00311825        -56.7564       0.00431729          92.509  
                       0.0026495        -95.7529         0.997744        -0.94545       0.00431708           92.51       0.00313637        -56.9945  
0.4267                0.00316563        -57.5182       0.00442134         92.5691         0.997729       -0.966913       0.00271165        -95.8835  
                      0.00442132         92.5692       0.00318426        -57.7563       0.00271171        -95.8842         0.997729       -0.967779  
                        0.997729       -0.966907       0.00271169        -95.8846       0.00316485        -57.5139        0.0044215         92.5607  
                      0.00271168        -95.8839         0.997729       -0.967759        0.0044213         92.5617       0.00318356        -57.7498  
0.4366                0.00321261        -58.2564       0.00452566         92.6207         0.997713       -0.989196       0.00277378        -96.0144  
                      0.00452564         92.6208       0.00323183        -58.4921       0.00277384        -96.0151         0.997713       -0.990082  
                        0.997713        -0.98919       0.00277382        -96.0155        0.0032118        -58.2526       0.00452583         92.6121  
                       0.0027738        -96.0148         0.997713       -0.990062       0.00452562         92.6131        0.0032311        -58.4862  
0.4465                0.00325993        -58.9765       0.00463009          92.672         0.997697        -1.01147       0.00283586        -96.1451  
                      0.00463007         92.6721       0.00327973        -59.2098       0.00283592         -96.146         0.997697        -1.01238  
                        0.997697        -1.01147        0.0028359        -96.1463       0.00325909        -58.9733       0.00463026         92.6633  
                      0.00283589        -96.1455         0.997696        -1.01236       0.00463004         92.6643       0.00327898        -59.2045  
0.4564                0.00330756        -59.6792       0.00473462          92.723         0.997681        -1.03374        0.0028979        -96.2758  
                      0.00473461         92.7231       0.00332796          -59.91       0.00289796        -96.2767         0.997681        -1.03467  
                        0.997681        -1.03374       0.00289794         -96.277       0.00330669        -59.6766       0.00473479         92.7142  
                      0.00289792        -96.2762          0.99768        -1.03465       0.00473458         92.7152       0.00332717        -59.9054  
0.4663                 0.0033555        -60.3651       0.00483927         92.7738         0.997664        -1.05601       0.00295989        -96.4064  
                      0.00483925         92.7739       0.00337648        -60.5934       0.00295995        -96.4073         0.997664        -1.05695  
                        0.997664          -1.056       0.00295993        -96.4076        0.0033546        -60.3631       0.00483944         92.7648  
                      0.00295991        -96.4068         0.997663        -1.05693       0.00483922         92.7659       0.00337567        -60.5894  
0.4762                0.00340372        -61.0347       0.00494403         92.8243         0.997647        -1.07826       0.00302183        -96.5369  
                      0.00494401         92.8244       0.00342529        -61.2605       0.00302189        -96.5378         0.997647        -1.07923  
                        0.997647        -1.07825       0.00302187        -96.5382       0.00340279        -61.0334       0.00494419         92.8152  
                      0.00302185        -96.5373         0.997646         -1.0792       0.00494397         92.8163       0.00342445        -61.2572  
0.4861                0.00345222        -61.6888        0.0050489         92.8745          0.99763        -1.10051       0.00308372        -96.6673  
                      0.00504888         92.8746       0.00347438        -61.9119       0.00308378        -96.6682         0.997629         -1.1015  
                         0.99763         -1.1005       0.00308376        -96.6686       0.00345126        -61.6881       0.00504907         92.8653  
                      0.00308374        -96.6677         0.997629        -1.10147       0.00504884         92.8664        0.0034735        -61.9093  
0.496                 0.00350097        -62.3278       0.00515388         92.9245         0.997612        -1.12275       0.00314556        -96.7976  
                      0.00515387         92.9246       0.00352372        -62.5483       0.00314562        -96.7985         0.997612        -1.12376  
                        0.997612        -1.12274       0.00314561        -96.7989       0.00349999        -62.3277       0.00515405         92.9152  
                      0.00314559         -96.798         0.997611        -1.12373       0.00515382         92.9163       0.00352282        -62.5464  
0.505900032           0.00354997        -62.9522       0.00525899         92.9743         0.997594        -1.14499       0.00320735        -96.9278  
                      0.00525897         92.9744       0.00357331        -63.1701       0.00320742        -96.9288         0.997594        -1.14601  
                        0.997594        -1.14498        0.0032074        -96.9291       0.00354896        -62.9528       0.00525915         92.9649  
                      0.00320738        -96.9282         0.997593        -1.14599       0.00525892          92.966       0.00357238         -63.169  
0.5158                0.00359921        -63.5627       0.00536421         93.0238         0.997576        -1.16721       0.00326909        -97.0579  
                      0.00536419         93.0239       0.00362313        -63.7779       0.00326916        -97.0589         0.997576        -1.16826  
                        0.997576        -1.16721       0.00326914        -97.0593       0.00359817         -63.564       0.00536437         93.0143  
                      0.00326912        -97.0583         0.997575        -1.16824       0.00536414         93.0154       0.00362217        -63.7775  
0.525699968           0.00364866        -64.1597       0.00546955         93.0731         0.997558        -1.18943       0.00333078        -97.1879  
                      0.00546953         93.0732       0.00367317        -64.3722       0.00333085         -97.189         0.997557         -1.1905  
                        0.997558        -1.18943       0.00333083        -97.1893        0.0036476        -64.1616       0.00546971         93.0634  
                      0.00333081        -97.1883         0.997557        -1.19048       0.00546948         93.0645       0.00367219        -64.3725  
0.5356                0.00369833        -64.7436       0.00557501         93.1221         0.997539        -1.21165       0.00339242        -97.3179  
                        0.005575         93.1222       0.00372342        -64.9535       0.00339248        -97.3189         0.997539        -1.21273  
                        0.997539        -1.21164       0.00339247        -97.3193       0.00369724        -64.7463       0.00557518         93.1123  
                      0.00339244        -97.3183         0.997538        -1.21271       0.00557494         93.1134       0.00372241        -64.9546  
0.545499968            0.0037482         -65.315        0.0056806         93.1708          0.99752        -1.23385         0.003454        -97.4477  
                      0.00568058         93.1709       0.00377387        -65.5222       0.00345407        -97.4488          0.99752        -1.23496  
                         0.99752        -1.23384       0.00345405        -97.4491       0.00374708        -65.3183       0.00568076         93.1609  
                      0.00345403        -97.4481         0.997519        -1.23493       0.00568052         93.1621       0.00377284         -65.524  
0.5554                0.00379825        -65.8743       0.00578631         93.2193         0.997501        -1.25605       0.00351553        -97.5774  
                      0.00578629         93.2194       0.00382451        -66.0788        0.0035156        -97.5785           0.9975        -1.25718  
                        0.997501        -1.25604       0.00351558        -97.5789       0.00379711        -65.8783       0.00578647         93.2093  
                      0.00351555        -97.5778           0.9975        -1.25715       0.00578623         93.2105       0.00382345        -66.0814  
0.565299968           0.00384849        -66.4219       0.00589215         93.2675         0.997481        -1.27824         0.003577         -97.707  
                      0.00589213         93.2676       0.00387533        -66.6237       0.00357707        -97.7082         0.997481        -1.27939  
                        0.997481        -1.27823       0.00357705        -97.7085       0.00384732        -66.4266       0.00589231         93.2575  
                      0.00357703        -97.7074          0.99748        -1.27936       0.00589207         93.2586       0.00387425        -66.6271  
0.5752                 0.0038989        -66.9582       0.00599812         93.3155         0.997461        -1.30042       0.00363841        -97.8366  
                       0.0059981         93.3156       0.00392632        -67.1573       0.00363849        -97.8377         0.997461        -1.30159  
                        0.997461        -1.30042       0.00363847        -97.8381       0.00389771        -66.9636       0.00599827         93.3053  
                      0.00363844         -97.837          0.99746        -1.30156       0.00599803         93.3065       0.00392521        -67.1615  
0.585099968           0.00394947        -67.4836       0.00610421         93.3632         0.997441         -1.3226       0.00369977         -97.966  