! TOUCHSTONE file generated by CST MICROWAVE STUDIO
! Date and time: Mon Oct 20 12:54:10 2014
! Project name: Untitled_1.cst
# GHZ S MA R 50
0.1                   0.00556933         10.8328       0.00117031         89.9448         0.994519       -0.204335       0.00088813        -90.5434  
                      0.00117031         89.9448       0.00556982          10.852      0.000888129        -90.5436         0.994519       -0.204473  
                        0.994519       -0.204335       0.00088813        -90.5435       0.00556933         10.8327       0.00117031         89.9446  
                     0.000888129        -90.5434         0.994519       -0.204473       0.00117031         89.9446       0.00556981          10.852  
0.1099                0.00558976         11.8763       0.00128619         89.9394         0.994517       -0.224563      0.000976037        -90.5971  
                      0.00128619         89.9393       0.00559032         11.8971      0.000976033        -90.5974         0.994517       -0.224715  
                        0.994517       -0.224563      0.000976037        -90.5973       0.00558976         11.8761       0.00128619         89.9392  
                     0.000976035        -90.5972         0.994517       -0.224715       0.00128619         89.9392       0.00559031         11.8972  
0.1198                0.00561204         12.9118       0.00140207         89.9339         0.994514        -0.24479       0.00106394        -90.6508  
                      0.00140207         89.9339       0.00561267         12.9342       0.00106393        -90.6511         0.994514       -0.244956  
                        0.994514        -0.24479       0.00106394         -90.651       0.00561204         12.9117       0.00140207         89.9337  
                      0.00106394         -90.651         0.994514       -0.244956       0.00140207         89.9337       0.00561265         12.9344  
0.129700008           0.00563614         13.9389       0.00151796         89.9285         0.994512       -0.265016       0.00115184        -90.7046  
                      0.00151796         89.9284       0.00563684         13.9628       0.00115183        -90.7049         0.994512       -0.265197  
                        0.994512       -0.265016       0.00115184        -90.7048       0.00563615         13.9387       0.00151795         89.9282  
                      0.00115183        -90.7048         0.994512       -0.265197       0.00151795         89.9282       0.00563683          13.963  
0.1396                0.00566205         14.9568       0.00163385          89.923         0.994509       -0.285242       0.00123973        -90.7583  
                      0.00163385         89.9229       0.00566283         14.9823       0.00123972        -90.7587         0.994509       -0.285436  
                        0.994509       -0.285242       0.00123973        -90.7585       0.00566206         14.9567       0.00163385         89.9227  
                      0.00123972        -90.7585         0.994509       -0.285436       0.00163385         89.9227       0.00566281         14.9826  
0.1495                0.00568973         15.9652       0.00174975         89.9175         0.994506       -0.305467       0.00132761         -90.812  
                      0.00174975         89.9174        0.0056906         15.9922        0.0013276        -90.8124         0.994506       -0.305675  
                        0.994506       -0.305467       0.00132762        -90.8123       0.00568974          15.965       0.00174974         89.9172  
                      0.00132761        -90.8123         0.994506       -0.305675       0.00174974         89.9172       0.00569058         15.9925  
0.1594                0.00571917         16.9636       0.00186565          89.912         0.994502        -0.32569       0.00141549        -90.8658  
                      0.00186565         89.9119       0.00572013          16.992       0.00141548        -90.8662         0.994502       -0.325912  
                        0.994502       -0.325691        0.0014155         -90.866       0.00571918         16.9634       0.00186564         89.9117  
                      0.00141548         -90.866         0.994502       -0.325913       0.00186565         89.9116       0.00572011         16.9924  
0.1693                0.00575033         17.9514       0.00198156         89.9065         0.994499       -0.345913       0.00150337        -90.9195  
                      0.00198156         89.9064        0.0057514         17.9813       0.00150335        -90.9199         0.994499       -0.346149  
                        0.994499       -0.345913       0.00150337        -90.9198       0.00575035         17.9512       0.00198155         89.9062  
                      0.00150336        -90.9198         0.994499       -0.346149       0.00198156         89.9061       0.00575137         17.9817  
0.1792                0.00578319         18.9283       0.00209748          89.901         0.994495       -0.366135       0.00159123        -90.9732  
                      0.00209748         89.9009       0.00578436         18.9596       0.00159121        -90.9737         0.994495       -0.366385  
                        0.994495       -0.366135       0.00159123        -90.9735       0.00578321         18.9281       0.00209747         89.9007  
                      0.00159122        -90.9735         0.994495       -0.366385       0.00209747         89.9006       0.00578433           18.96  
0.1891                0.00581772         19.8939        0.0022134         89.8954         0.994491       -0.386356       0.00167909        -91.0269  
                       0.0022134         89.8954         0.005819         19.9266       0.00167907        -91.0274         0.994491        -0.38662  
                        0.994491       -0.386356       0.00167909        -91.0272       0.00581774         19.8937       0.00221339         89.8951  
                      0.00167908        -91.0272         0.994491        -0.38662       0.00221339          89.895       0.00581897          19.927  
0.199                 0.00585389         20.8479       0.00232933         89.8899         0.994487       -0.406575       0.00176694        -91.0806  
                      0.00232933         89.8898       0.00585529         20.8818       0.00176692        -91.0811         0.994487       -0.406853  
                        0.994487       -0.406576       0.00176694        -91.0809       0.00585391         20.8477       0.00232932         89.8895  
                      0.00176693        -91.0809         0.994487       -0.406853       0.00232932         89.8895       0.00585526         20.8823  
0.2089                0.00589166           21.79       0.00244527         89.8843         0.994482       -0.426794       0.00185478        -91.1343  
                      0.00244527         89.8843       0.00589319         21.8251       0.00185476        -91.1348         0.994482       -0.427085  
                        0.994482       -0.426794       0.00185478        -91.1347       0.00589169         21.7897       0.00244526          89.884  
                      0.00185477        -91.1346         0.994482       -0.427086       0.00244526         89.8839       0.00589316         21.8256  
0.2188                0.00593102         22.7198       0.00256122         89.8788         0.994478       -0.447011       0.00194261         -91.188  
                      0.00256122         89.8787       0.00593268         22.7561       0.00194259        -91.1885         0.994478       -0.447317  
                        0.994478       -0.447012       0.00194261        -91.1884       0.00593105         22.7195       0.00256121         89.8784  
                       0.0019426        -91.1883         0.994478       -0.447317       0.00256121         89.8783       0.00593264         22.7566  
0.2287                0.00597193         23.6371       0.00267718         89.8732         0.994473       -0.467227       0.00203043        -91.2417  
                      0.00267718         89.8731       0.00597372         23.6746       0.00203041        -91.2422         0.994473       -0.467546  
                        0.994473       -0.467228       0.00203044         -91.242       0.00597196         23.6368       0.00267716         89.8728  
                      0.00203042        -91.2419         0.994473       -0.467547       0.00267716         89.8727       0.00597368         23.6751  
0.2386                0.00601435         24.5418       0.00279314         89.8676         0.994468       -0.487442       0.00211824        -91.2953  
                      0.00279314         89.8675       0.00601628         24.5804       0.00211822        -91.2958         0.994468       -0.487775  
                        0.994468       -0.487442       0.00211825        -91.2957       0.00601438         24.5414       0.00279313         89.8672  
                      0.00211823        -91.2956         0.994468       -0.487775       0.00279313         89.8671       0.00601624         24.5809  
0.2485                0.00605827         25.4336       0.00290911          89.862         0.994463       -0.507655       0.00220605         -91.349  
                      0.00290912          89.862       0.00606033         25.4732       0.00220603        -91.3495         0.994463       -0.508002  
                        0.994462       -0.507656       0.00220605        -91.3494        0.0060583         25.4332        0.0029091         89.8616  
                      0.00220603        -91.3492         0.994463       -0.508002        0.0029091         89.8615       0.00606029         25.4738  
0.2584                0.00610363         26.3124        0.0030251         89.8564         0.994457       -0.527867       0.00229384        -91.4026  
                       0.0030251         89.8564       0.00610585          26.353       0.00229382        -91.4031         0.994457       -0.528228  
                        0.994457       -0.527867       0.00229384         -91.403       0.00610366          26.312       0.00302508          89.856  
                      0.00229382        -91.4028         0.994457       -0.528228       0.00302508         89.8559        0.0061058         26.3536  
0.2683                0.00615042          27.178       0.00314109         89.8508         0.994451       -0.548077       0.00238162        -91.4563  
                      0.00314109         89.8508       0.00615278         27.2196        0.0023816        -91.4568         0.994451       -0.548452  
                        0.994451       -0.548078       0.00238162        -91.4567       0.00615045         27.1776       0.00314108         89.8504  
                       0.0023816        -91.4564         0.994451       -0.548452       0.00314108         89.8503       0.00615274         27.2202  
0.2782                 0.0061986         28.0305        0.0032571         89.8452         0.994445       -0.568286       0.00246939        -91.5099  
                       0.0032571         89.8451       0.00620112         28.0729       0.00246937        -91.5104         0.994445       -0.568674  
                        0.994445       -0.568286       0.00246939        -91.5103       0.00619864           28.03       0.00325708         89.8447  
                      0.00246937          -91.51         0.994445       -0.568675       0.00325708         89.8447       0.00620108         28.0735  
0.2881                0.00624814         28.8696       0.00337311         89.8396         0.994439       -0.588493       0.00255714        -91.5635  
                      0.00337311         89.8395       0.00625082         28.9129       0.00255712         -91.564         0.994439       -0.588895  
                        0.994439       -0.588494       0.00255715        -91.5639       0.00624818         28.8691        0.0033731         89.8391  
                      0.00255713        -91.5636         0.994439       -0.588896        0.0033731          89.839       0.00625077         28.9135  
0.298                   0.006299         29.6954       0.00348914         89.8339         0.994433       -0.608699       0.00264489        -91.6171  
                      0.00348914         89.8339       0.00630185         29.7394       0.00264487        -91.6176         0.994433       -0.609115  
                        0.994433       -0.608699       0.00264489        -91.6175       0.00629904         29.6949       0.00348912         89.8334  
                      0.00264487        -91.6172         0.994433       -0.609115       0.00348912         89.8334        0.0063018         29.7401  
0.3079                0.00635117         30.5078       0.00360518         89.8283         0.994426       -0.628903       0.00273262        -91.6706  
                      0.00360518         89.8282       0.00635418         30.5526        0.0027326        -91.6711         0.994426       -0.629332  
                        0.994426       -0.628903       0.00273262        -91.6711       0.00635121         30.5073       0.00360516         89.8278  
                      0.00273261        -91.6708         0.994426       -0.629333       0.00360516         89.8277       0.00635413         30.5533  
0.3178                0.00640459         31.3069       0.00372123         89.8226          0.99442       -0.649105       0.00282034        -91.7242  
                      0.00372123         89.8225       0.00640777         31.3524       0.00282032        -91.7247          0.99442       -0.649548  
                         0.99442       -0.649105       0.00282034        -91.7247       0.00640464         31.3063       0.00372121         89.8221  
                      0.00282033        -91.7243          0.99442       -0.649549       0.00372121          89.822       0.00640772         31.3531  
0.3277                0.00645926         32.0927       0.00383729         89.8169         0.994413       -0.669305       0.00290804        -91.7777  
                      0.00383729         89.8169       0.00646261         32.1388       0.00290802        -91.7782         0.994413       -0.669762  
                        0.994413       -0.669306       0.00290804        -91.7782        0.0064593          32.092       0.00383727         89.8164  
                      0.00290803        -91.7778         0.994413       -0.669763       0.00383728         89.8163       0.00646256         32.1395  
0.3376                0.00651512         32.8651       0.00395337         89.8112         0.994406       -0.689504       0.00299573        -91.8312  
                      0.00395337         89.8112       0.00651865         32.9119       0.00299572        -91.8318         0.994406       -0.689974  
                        0.994406       -0.689504       0.00299574        -91.8318       0.00651517         32.8644       0.00395335         89.8106  
                      0.00299572        -91.8313         0.994406       -0.689975       0.00395335         89.8106        0.0065186         32.9126  
0.3475                0.00657216         33.6244       0.00406946         89.8055         0.994398         -0.7097       0.00308341        -91.8847  
                      0.00406946         89.8055       0.00657587         33.6716       0.00308339        -91.8853         0.994398       -0.710185  
                        0.994398       -0.709701       0.00308341        -91.8853       0.00657221         33.6236       0.00406944         89.8049  
                       0.0030834        -91.8848         0.994398       -0.710185       0.00406944         89.8049       0.00657581         33.6724  
0.3574                0.00663035         34.3705       0.00418556         89.7998         0.994391       -0.729895       0.00317107        -91.9382  
                      0.00418556         89.7997       0.00663424         34.4182       0.00317105        -91.9388         0.994391       -0.730393  
                        0.994391       -0.729895       0.00317107        -91.9388        0.0066304         34.3697       0.00418554         89.7992  
                      0.00317106        -91.9383         0.994391       -0.730393       0.00418554         89.7991       0.00663418         34.4191  
0.3673                0.00668965         35.1035       0.00430168          89.794         0.994383       -0.750087       0.00325872        -91.9917  
                      0.00430168          89.794       0.00669372         35.1517        0.0032587        -91.9923         0.994383       -0.750599  
                        0.994383       -0.750088       0.00325872        -91.9923        0.0066897         35.1027       0.00430166         89.7934  
                      0.00325871        -91.9918         0.994383         -0.7506       0.00430166         89.7934       0.00669366         35.1526  
0.3772                0.00675003         35.8236       0.00441782         89.7883         0.994375       -0.770278       0.00334635        -92.0451  
                      0.00441781         89.7882       0.00675429         35.8722       0.00334633        -92.0457         0.994375       -0.770803  
                        0.994375       -0.770278       0.00334635        -92.0457       0.00675008         35.8227       0.00441779         89.7877  
                      0.00334634        -92.0452         0.994375       -0.770804       0.00441779         89.7876       0.00675423         35.8731  
0.3871                0.00681148         36.5308       0.00453396         89.7825         0.994367       -0.790466       0.00343396        -92.0986  
                      0.00453396         89.7825       0.00681593         36.5799       0.00343395        -92.0992         0.994366       -0.791005  
                        0.994367       -0.790467       0.00343396        -92.0992       0.00681153         36.5299       0.00453394         89.7819  
                      0.00343395        -92.0986         0.994367       -0.791006       0.00453394         89.7818       0.00681586         36.5807  
0.397                 0.00687395         37.2254       0.00465012         89.7767         0.994358       -0.810652       0.00352156         -92.152  
                      0.00465012         89.7767       0.00687859         37.2748       0.00352155        -92.1526         0.994358       -0.811205  
                        0.994358       -0.810653       0.00352156        -92.1526         0.006874         37.2244        0.0046501         89.7761  
                      0.00352155         -92.152         0.994358       -0.811206        0.0046501          89.776       0.00687852         37.2757  
0.4069                0.00693743         37.9073        0.0047663         89.7709          0.99435       -0.830836       0.00360914        -92.2054  
                       0.0047663         89.7709       0.00694226         37.9571       0.00360913         -92.206         0.994349       -0.831403  
                         0.99435       -0.830837       0.00360914         -92.206       0.00693748         37.9064       0.00476628         89.7702  
                      0.00360913        -92.2054         0.994349       -0.831404       0.00476628         89.7702       0.00694219          37.958  
0.4168                0.00700189         38.5769        0.0048825         89.7651         0.994341       -0.851018        0.0036967        -92.2587  
                       0.0048825         89.7651       0.00700691         38.6269       0.00369669        -92.2594         0.994341       -0.851599  
                        0.994341       -0.851019        0.0036967        -92.2594       0.00700194         38.5759       0.00488247         89.7644  
                       0.0036967        -92.2588         0.994341       -0.851599       0.00488247         89.7644       0.00700683         38.6278  
0.4267                0.00706729         39.2342       0.00499871         89.7592         0.994332       -0.871198       0.00378425        -92.3121  
                      0.00499871         89.7592       0.00707251         39.2845       0.00378424        -92.3127         0.994332       -0.871792  
                        0.994332       -0.871198       0.00378425        -92.3127       0.00706734         39.2332       0.00499868         89.7586  
                      0.00378424        -92.3121         0.994332       -0.871792       0.00499868         89.7585       0.00707243         39.2854  
0.4366                0.00713362         39.8794       0.00511493         89.7534         0.994323       -0.891375       0.00387177        -92.3654  
                      0.00511493         89.7534       0.00713904         39.9299       0.00387177         -92.366         0.994322       -0.891982  
                        0.994323       -0.891376       0.00387178        -92.3661       0.00713367         39.8784       0.00511491         89.7527  
                      0.00387177        -92.3654         0.994322       -0.891983       0.00511491         89.7527       0.00713896         39.9309  
0.4465                0.00720085         40.5127       0.00523118         89.7475         0.994313        -0.91155       0.00395928        -92.4187  
                      0.00523118         89.7475       0.00720647         40.5634       0.00395928        -92.4194         0.994313       -0.912171  
                        0.994313        -0.91155       0.00395928        -92.4194        0.0072009         40.5116       0.00523115         89.7468  
                      0.00395928        -92.4187         0.994313       -0.912171       0.00523115         89.7468       0.00720639         40.5644  
0.4564                0.00726896         41.1343       0.00534744         89.7416         0.994303       -0.931722       0.00404677         -92.472  
                      0.00534744         89.7416       0.00727478         41.1851       0.00404677        -92.4727         0.994303       -0.932357  
                        0.994303       -0.931722       0.00404677        -92.4727       0.00726901         41.1331       0.00534741         89.7409  
                      0.00404677         -92.472         0.994303       -0.932357       0.00534741         89.7409       0.00727469         41.1861  
0.4663                0.00733792         41.7443       0.00546372         89.7357         0.994294       -0.951892       0.00413424        -92.5252  
                      0.00546372         89.7357       0.00734394         41.7952       0.00413424        -92.5259         0.994293        -0.95254  
                        0.994293       -0.951892       0.00413424        -92.5259       0.00733797         41.7431       0.00546369          89.735  
                      0.00413424        -92.5252         0.994293       -0.952541       0.00546369          89.735       0.00734385         41.7963  
0.4762                0.00740771         42.3429       0.00558002         89.7298         0.994283       -0.972059        0.0042217        -92.5785  
                      0.00558002         89.7298       0.00741394         42.3939       0.00422169        -92.5792         0.994283       -0.972721  
                        0.994283       -0.972059       0.00422169        -92.5792       0.00740776         42.3417       0.00557999          89.729  
                      0.00422169        -92.5785         0.994283       -0.972721       0.00557998          89.729       0.00741384          42.395  
0.4861                0.00747831         42.9304       0.00569633         89.7238         0.994273       -0.992223       0.00430913        -92.6317  
                      0.00569633         89.7238       0.00748474         42.9814       0.00430912        -92.6324         0.994273       -0.992899  
                        0.994273       -0.992224       0.00430913        -92.6324       0.00747836         42.9291        0.0056963         89.7231  
                      0.00430913        -92.6317         0.994273         -0.9929        0.0056963         89.7231       0.00748464         42.9825  
0.496                 0.00754969         43.5068       0.00581267         89.7179         0.994263        -1.01239       0.00439654        -92.6848  
                      0.00581267         89.7179       0.00755633         43.5579       0.00439654        -92.6856         0.994262        -1.01307  
                        0.994263        -1.01239       0.00439654        -92.6856       0.00754974         43.5055       0.00581263         89.7171  
                      0.00439654        -92.6848         0.994262        -1.01308       0.00581263         89.7171       0.00755623          43.559  
0.505900032           0.00762184         44.0725       0.00592902         89.7119         0.994252        -1.03254       0.00448393         -92.738  
                      0.00592902         89.7119       0.00762868         44.1236       0.00448393        -92.7388         0.994252        -1.03325  
                        0.994252        -1.03255       0.00448393        -92.7388       0.00762189         44.0711       0.00592899         89.7111  
                      0.00448393         -92.738         0.994252        -1.03325       0.00592899         89.7111       0.00762858         44.1247  
0.5158                0.00769473         44.6275        0.0060454         89.7059         0.994241         -1.0527        0.0045713        -92.7911  
                       0.0060454         89.7059       0.00770178         44.6786        0.0045713        -92.7919         0.994241        -1.05342  
                        0.994241         -1.0527       0.00457129        -92.7919       0.00769478         44.6261       0.00604536          89.705  
                       0.0045713        -92.7911         0.994241        -1.05342       0.00604536         89.7051       0.00770167         44.6798  
0.525699968           0.00776834         45.1721       0.00616179         89.6998          0.99423        -1.07285       0.00465864        -92.8442  
                      0.00616179         89.6998        0.0077756         45.2232       0.00465864         -92.845          0.99423        -1.07359  
                         0.99423        -1.07286       0.00465864         -92.845       0.00776839         45.1707       0.00616176          89.699  
                      0.00465864        -92.8442          0.99423        -1.07359       0.00616176          89.699       0.00777549         45.2244  
0.5356                0.00784266         45.7065       0.00627821         89.6938         0.994219        -1.09301       0.00474597        -92.8973  
                      0.00627821         89.6938       0.00785013         45.7575       0.00474597        -92.8981         0.994218        -1.09375  
                        0.994219        -1.09301       0.00474597        -92.8981       0.00784271          45.705       0.00627817         89.6929  
                      0.00474597        -92.8973         0.994218        -1.09375       0.00627817         89.6929       0.00785002         45.7588  
0.545499968           0.00791767         46.2309       0.00639464         89.6877         0.994207        -1.11315       0.00483327        -92.9504  
                      0.00639464         89.6877       0.00792534         46.2818       0.00483327        -92.9512         0.994207        -1.11391  
                        0.994207        -1.11315       0.00483327        -92.9512       0.00791771         46.2294       0.00639461         89.6868  
                      0.00483327        -92.9504         0.994207        -1.11391        0.0063946         89.6869       0.00792523         46.2831  
0.5554                0.00799334         46.7454        0.0065111         89.6816         0.994196         -1.1333       0.00492055        -93.0034  
                       0.0065111         89.6816       0.00800122         46.7963       0.00492055        -93.0042         0.994195        -1.13407  
                        0.994195         -1.1333       0.00492055        -93.0042       0.00799338         46.7439       0.00651106         89.6807  
                      0.00492055        -93.0034         0.994195        -1.13407       0.00651106         89.6807       0.00800111         46.7976  
0.565299968           0.00806966         47.2503       0.00662758         89.6755         0.994184        -1.15344       0.00500781        -93.0564  
                      0.00662758         89.6755       0.00807775         47.3011       0.00500781        -93.0572         0.994183        -1.15423  
                        0.994184        -1.15344        0.0050078        -93.0572        0.0080697         47.2487       0.00662754         89.6746  
                      0.00500781        -93.0564         0.994183        -1.15423       0.00662754         89.6746       0.00807763         47.3024  
0.5752                0.00814661         47.7458       0.00674408         89.6694         0.994172        -1.17358       0.00509504        -93.1093  
                      0.00674408         89.6694       0.00815491         47.7964       0.00509504        -93.1102         0.994171        -1.17438  
                        0.994171        -1.17358       0.00509504        -93.1102       0.00814665         47.7441       0.00674404         89.6684  
                      0.00509504        -93.1093         0.994171        -1.17438       0.00674404         89.6685       0.00815479         47.7977  
0.585099968           0.00822418          48.232        0.0068606         89.6632         0.994159        -1.19372       0.00518225        -93.1623  