! TOUCHSTONE file generated by CST MICROWAVE STUDIO
! Date and time: Wed Oct 22 17:47:01 2014
! Project name: Untitled_0.cst
# GHZ S MA R 50
0.1                    0.0018401        -6.37194      0.000983082         90.4804         0.998143       -0.233273      0.000684132        -91.2434  
                     0.000983082         90.4804       0.00183953        -6.19626      0.000684131        -91.2432         0.998143       -0.233033  
                        0.998143       -0.233273      0.000684132        -91.2432       0.00184009        -6.37195      0.000983083         90.4804  
                     0.000684131        -91.2434         0.998143       -0.233034      0.000983083         90.4804       0.00183953        -6.19624  
0.1099                0.00184235        -6.99988       0.00108052          90.526         0.998137       -0.256327      0.000751479        -91.3607  
                      0.00108052         90.5258       0.00184168        -6.80727      0.000751482        -91.3603         0.998137       -0.256063  
                        0.998137       -0.256327       0.00075148        -91.3604       0.00184233        -6.99961       0.00108052         90.5258  
                     0.000751483        -91.3606         0.998137       -0.256065       0.00108052          90.526       0.00184172        -6.80646  
0.1198                0.00184478        -7.62886       0.00117798         90.5718         0.998131       -0.279372      0.000818812        -91.4767  
                      0.00117798         90.5715       0.00184401        -7.41945      0.000818819        -91.4761         0.998131       -0.279085  
                        0.998131       -0.279373      0.000818816        -91.4763       0.00184475        -7.62834       0.00117798         90.5716  
                     0.000818821        -91.4766         0.998131       -0.279088       0.00117798         90.5718       0.00184408        -7.41792  
0.129700008           0.00184739        -8.25886       0.00127546         90.6179         0.998125       -0.302407      0.000886131        -91.5918  
                      0.00127546         90.6175        0.0018465        -8.03279      0.000886141         -91.591         0.998125       -0.302098  
                        0.998125        -0.30241      0.000886137        -91.5913       0.00184736         -8.2581       0.00127546         90.6176  
                     0.000886144        -91.5916         0.998125       -0.302102       0.00127545         90.6179       0.00184661        -8.03061  
0.1396                0.00185018        -8.88985       0.00137296         90.6641         0.998118       -0.325434      0.000953434         -91.706  
                      0.00137296         90.6637       0.00184917        -8.64727      0.000953447        -91.7052         0.998118       -0.325101  
                        0.998118       -0.325437      0.000953442        -91.7055       0.00185014        -8.88888       0.00137296         90.6638  
                     0.000953451        -91.7058         0.998118       -0.325106       0.00137296         90.6642       0.00184931        -8.64451  
0.1495                0.00185315        -9.52179        0.0014705         90.7105          0.99811       -0.348451       0.00102072        -91.8197  
                       0.0014705           90.71         0.001852        -9.26286       0.00102074        -91.8187         0.998111       -0.348096  
                         0.99811       -0.348455       0.00102073        -91.8192       0.00185311        -9.52064       0.00147049         90.7101  
                      0.00102074        -91.8195          0.99811       -0.348101       0.00147049         90.7106       0.00185217        -9.25958  
0.1594                 0.0018563        -10.1547       0.00156806          90.757         0.998102       -0.371459       0.00108799        -91.9328  
                      0.00156806         90.7564       0.00185499        -9.87954       0.00108801        -91.9318         0.998103        -0.37108  
                        0.998102       -0.371463         0.001088        -91.9323       0.00185625        -10.1533       0.00156806         90.7566  
                      0.00108801        -91.9327         0.998103       -0.371086       0.00156805          90.757        0.0018552         -9.8758  
0.1693                0.00185961        -10.7884       0.00166566         90.8034         0.998094       -0.394456       0.00115524        -92.0455  
                      0.00166565         90.8029       0.00185815        -10.4973       0.00115526        -92.0445         0.998095       -0.394055  
                        0.998094        -0.39446       0.00115525         -92.045       0.00185956        -10.7869       0.00166565          90.803  
                      0.00115527        -92.0454         0.998095       -0.394061       0.00166565         90.8035       0.00185838        -10.4931  
0.1792                 0.0018631         -11.423       0.00176329         90.8499         0.998086       -0.417443       0.00122247        -92.1579  
                      0.00176328         90.8494       0.00186146         -11.116        0.0012225        -92.1569         0.998086       -0.417019  
                        0.998086       -0.417448       0.00122248        -92.1573       0.00186304        -11.4214       0.00176328         90.8495  
                       0.0012225        -92.1578         0.998086       -0.417026       0.00176328           90.85       0.00186173        -11.1115  
0.1891                0.00186675        -12.0584       0.00186096         90.8964         0.998077        -0.44042       0.00128968        -92.2699  
                      0.00186095         90.8959       0.00186493        -11.7358       0.00128971        -92.2689         0.998077       -0.439973  
                        0.998077       -0.440425        0.0012897        -92.2694       0.00186669        -12.0567       0.00186095          90.896  
                      0.00128971        -92.2699         0.998077        -0.43998       0.00186095         90.8966       0.00186522        -11.7309  
0.199                 0.00187057        -12.6945       0.00195866         90.9429         0.998067       -0.463386       0.00135687        -92.3817  
                      0.00195866         90.9424       0.00186855        -12.3565        0.0013569        -92.3807         0.998068       -0.462916  
                        0.998067       -0.463391       0.00135688        -92.3812       0.00187051        -12.6928       0.00195865         90.9425  
                      0.00135691        -92.3818         0.998068       -0.462923       0.00195865          90.943       0.00186887        -12.3514  
0.2089                0.00187455        -13.3313       0.00205641         90.9894         0.998058       -0.486341       0.00142403        -92.4933  
                      0.00205641         90.9889       0.00187232         -12.978       0.00142407        -92.4923         0.998058       -0.485849  
                        0.998058       -0.486346       0.00142405        -92.4928       0.00187449        -13.3295        0.0020564          90.989  
                      0.00142407        -92.4934         0.998058       -0.485856        0.0020564         90.9895       0.00187267        -12.9727  
0.2188                0.00187869        -13.9688       0.00215421         91.0358         0.998047       -0.509286       0.00149117        -92.6047  
                       0.0021542         91.0353       0.00187625        -13.6005       0.00149121        -92.6037         0.998048        -0.50877  
                        0.998047       -0.509291       0.00149119        -92.6041       0.00187862         -13.967        0.0021542         91.0354  
                      0.00149121        -92.6049         0.998048       -0.508777        0.0021542         91.0359       0.00187662        -13.5949  
0.2287                0.00188298        -14.6069       0.00225205         91.0821         0.998037       -0.532219       0.00155828        -92.7158  
                      0.00225204         91.0816       0.00188031        -14.2237       0.00155833        -92.7149         0.998038       -0.531681  
                        0.998037       -0.532224       0.00155831        -92.7153       0.00188292         -14.605       0.00225204         91.0818  
                      0.00155833        -92.7161         0.998037       -0.531687       0.00225204         91.0822       0.00188071         -14.218  
0.2386                0.00188744        -15.2455       0.00234994         91.1283         0.998026       -0.555141       0.00162537        -92.8268  
                      0.00234993         91.1279       0.00188453        -14.8477       0.00162542        -92.8259         0.998027        -0.55458  
                        0.998026       -0.555147       0.00162539        -92.8263       0.00188737        -15.2436       0.00234993          91.128  
                      0.00162542        -92.8271         0.998026       -0.554587       0.00234993         91.1285       0.00188494        -14.8419  
0.2485                0.00189204        -15.8846       0.00244788         91.1745         0.998015       -0.578053       0.00169243        -92.9376  
                      0.00244787         91.1741       0.00188888        -15.4724       0.00169248        -92.9368         0.998016       -0.577468  
                        0.998015       -0.578058       0.00169246        -92.9371       0.00189197        -15.8827       0.00244786         91.1742  
                      0.00169248         -92.938         0.998015       -0.577474       0.00244787         91.1746       0.00188932        -15.4664  
0.2584                0.00189679        -16.5241       0.00254587         91.2206         0.998003       -0.600952       0.00175946        -93.0483  
                      0.00254586         91.2201       0.00189337        -16.0977       0.00175951        -93.0475         0.998004       -0.600345  
                        0.998003       -0.600958       0.00175949        -93.0478       0.00189672        -16.5223       0.00254586         91.2203  
                      0.00175951        -93.0488         0.998004       -0.600351       0.00254586         91.2207       0.00189383        -16.0917  
0.2683                0.00190169        -17.1639       0.00264392         91.2665         0.997991       -0.623841       0.00182646        -93.1588  
                      0.00264391         91.2661         0.001898        -16.7237       0.00182651        -93.1581         0.997992        -0.62321  
                        0.997991       -0.623846       0.00182649        -93.1584       0.00190162        -17.1622       0.00264391         91.2662  
                      0.00182651        -93.1593         0.997992       -0.623216       0.00264391         91.2666       0.00189848        -16.7175  
0.2782                0.00190674        -17.8041       0.00274202         91.3123         0.997979       -0.646718       0.00189343        -93.2692  
                      0.00274201          91.312       0.00190276        -17.3501       0.00189348        -93.2685          0.99798       -0.646064  
                        0.997979       -0.646723       0.00189346        -93.2687       0.00190666        -17.8023       0.00274201         91.3121  
                      0.00189348        -93.2697          0.99798        -0.64607       0.00274201         91.3124       0.00190326        -17.3439  
0.2881                0.00191192        -18.4444       0.00284019          91.358         0.997967       -0.669584       0.00196037        -93.3794  
                      0.00284018         91.3577       0.00190766         -17.977       0.00196042        -93.3787         0.997967       -0.668907  
                        0.997967       -0.669589       0.00196039        -93.3789       0.00191185        -18.4428       0.00284018         91.3578  
                      0.00196042          -93.38         0.997967       -0.668912       0.00284018         91.3581       0.00190817        -17.9708  
0.298                 0.00191725         -19.085       0.00293841         91.4036         0.997954       -0.692438       0.00202727        -93.4895  
                       0.0029384         91.4033       0.00191269        -18.6044       0.00202732        -93.4888         0.997955       -0.691738  
                        0.997954       -0.692443       0.00202729         -93.489       0.00191718        -19.0834        0.0029384         91.4034  
                      0.00202732        -93.4901         0.997954       -0.691742       0.00293841         91.4037       0.00191321        -18.5981  
0.3079                0.00192272        -19.7256        0.0030367          91.449         0.997941       -0.715281       0.00209414        -93.5993  
                      0.00303669         91.4487       0.00191784        -19.2321       0.00209419        -93.5988         0.997941       -0.714557  
                        0.997941       -0.715286       0.00209416        -93.5989       0.00192265        -19.7241       0.00303669         91.4488  
                      0.00209418        -93.6001         0.997941       -0.714561        0.0030367         91.4491       0.00191838        -19.2258  
0.3178                0.00192833        -20.3662       0.00313506         91.4943         0.997927       -0.738113       0.00216097        -93.7091  
                      0.00313505          91.494       0.00192312          -19.86       0.00216102        -93.7086         0.997928       -0.737365  
                        0.997927       -0.738117       0.00216099        -93.7087       0.00192825        -20.3648       0.00313505         91.4941  
                      0.00216101        -93.7098         0.997928       -0.737368       0.00313505         91.4943       0.00192368        -19.8538  
0.3277                0.00193406        -21.0068       0.00323348         91.5394         0.997913       -0.760933       0.00222776        -93.8187  
                      0.00323347         91.5391       0.00192853        -20.4882       0.00222781        -93.8182         0.997914       -0.760162  
                        0.997913       -0.760937       0.00222779        -93.8182       0.00193399        -21.0056       0.00323347         91.5392  
                      0.00222781        -93.8194         0.997914       -0.760164       0.00323348         91.5394        0.0019291         -20.482  
0.3376                0.00193993        -21.6473       0.00333197         91.5843         0.997899       -0.783741       0.00229452        -93.9281  
                      0.00333196         91.5841       0.00193405        -21.1166       0.00229457        -93.9276           0.9979       -0.782946  
                        0.997899       -0.783745       0.00229454        -93.9276       0.00193986        -21.6462       0.00333196         91.5841  
                      0.00229456        -93.9288           0.9979       -0.782948       0.00333197         91.5844       0.00193464        -21.1104  
0.3475                0.00194593        -22.2877       0.00343053         91.6291         0.997885       -0.806538       0.00236123        -94.0373  
                      0.00343052         91.6289        0.0019397        -21.7451       0.00236128        -94.0369         0.997886       -0.805719  
                        0.997885       -0.806541       0.00236125        -94.0369       0.00194586        -22.2866       0.00343053         91.6289  
                      0.00236127        -94.0381         0.997885       -0.805721       0.00343053         91.6291        0.0019403        -21.7388  
0.3574                0.00195206        -22.9278       0.00352917         91.6737          0.99787       -0.829323       0.00242791        -94.1463  
                      0.00352916         91.6735       0.00194547        -22.3735       0.00242795        -94.1459         0.997871       -0.828481  
                         0.99787       -0.829327       0.00242793        -94.1459       0.00195199        -22.9269       0.00352916         91.6735  
                      0.00242795        -94.1471         0.997871       -0.828482       0.00352917         91.6737       0.00194607        -22.3673  
0.3673                0.00195832        -23.5675       0.00362788         91.7181         0.997855       -0.852098       0.00249454        -94.2552  
                      0.00362787         91.7179       0.00195135         -23.002       0.00249458        -94.2548         0.997856       -0.851232  
                        0.997855       -0.852101       0.00249456        -94.2547       0.00195824        -23.5668       0.00362787         91.7179  
                      0.00249458        -94.2559         0.997856       -0.851232       0.00362788         91.7181       0.00195197        -22.9958  
0.3772                 0.0019647         -24.207       0.00372666         91.7623          0.99784       -0.874861       0.00256114        -94.3638  
                      0.00372665         91.7621       0.00195735        -23.6304       0.00256117        -94.3634         0.997841        -0.87397  
                         0.99784       -0.874863       0.00256115        -94.3633       0.00196462        -24.2063       0.00372666         91.7621  
                      0.00256117        -94.3645         0.997841        -0.87397       0.00372666         91.7623       0.00195797        -23.6242  
0.3871                 0.0019712        -24.8459       0.00382553         91.8063         0.997825       -0.897612       0.00262769        -94.4722  
                      0.00382552         91.8062       0.00196346        -24.2586       0.00262772        -94.4718         0.997826       -0.896698  
                        0.997825       -0.897614        0.0026277        -94.4717       0.00197112        -24.8454       0.00382552         91.8061  
                      0.00262771        -94.4729         0.997825       -0.896697       0.00382553         91.8063       0.00196409        -24.2524  
0.397                 0.00197782        -25.4844       0.00392447         91.8501         0.997809       -0.920352       0.00269419        -94.5804  
                      0.00392446           91.85       0.00196968        -24.8866       0.00269422          -94.58          0.99781       -0.919414  
                        0.997809       -0.920354        0.0026942        -94.5799       0.00197774        -25.4841       0.00392447           91.85  
                      0.00269421        -94.5811         0.997809       -0.919413       0.00392447         91.8501       0.00197032        -24.8805  
0.4069                0.00198457        -26.1223       0.00402349         91.8938         0.997793       -0.943081       0.00276065        -94.6884  
                      0.00402349         91.8937       0.00197601        -25.5143       0.00276068        -94.6879         0.997794       -0.942119  
                        0.997793       -0.943083       0.00276067        -94.6878       0.00198448        -26.1221       0.00402349         91.8936  
                      0.00276067         -94.689         0.997793       -0.942117       0.00402349         91.8937       0.00197666        -25.5082  
0.4168                0.00199143        -26.7596        0.0041226         91.9372         0.997777       -0.965799       0.00282707        -94.7961  
                      0.00412259         91.9371       0.00198245        -26.1417        0.0028271        -94.7956         0.997777       -0.964812  
                        0.997776         -0.9658       0.00282708        -94.7955       0.00199134        -26.7595        0.0041226          91.937  
                      0.00282709        -94.7967         0.997777        -0.96481        0.0041226         91.9371       0.00198311        -26.1356  
0.4267                 0.0019984        -27.3961       0.00422179         91.9804          0.99776       -0.988505       0.00289345        -94.9036  
                      0.00422178         91.9803         0.001989        -26.7687       0.00289347        -94.9031         0.997761       -0.987494  
                         0.99776       -0.988507       0.00289345        -94.9029       0.00199832        -27.3963       0.00422179         91.9802  
                      0.00289346        -94.9041         0.997761       -0.987492       0.00422179         91.9803       0.00198967        -26.7625  
0.4366                0.00200549         -28.032       0.00432107         92.0234         0.997743         -1.0112       0.00295977        -95.0108  
                      0.00432106         92.0234       0.00199565        -27.3952       0.00295979        -95.0102         0.997744        -1.01017  
                        0.997743         -1.0112       0.00295978        -95.0101        0.0020054        -28.0322       0.00432107         92.0232  
                      0.00295978        -95.0113         0.997744        -1.01016       0.00432107         92.0233       0.00199632         -27.389  
0.4465                0.00201269         -28.667       0.00442043         92.0662         0.997726        -1.03389       0.00302606        -95.1178  
                      0.00442043         92.0662       0.00200241        -28.0212       0.00302607        -95.1172         0.997727        -1.03283  
                        0.997726        -1.03389       0.00302606        -95.1171        0.0020126        -28.6674       0.00442044          92.066  
                      0.00302607        -95.1182         0.997727        -1.03282       0.00442044         92.0661       0.00200309         -28.015  
0.4564                   0.00202        -29.3011       0.00451989         92.1088         0.997709        -1.05656        0.0030923        -95.2245  
                      0.00451988         92.1087       0.00200926        -28.6466       0.00309231        -95.2238          0.99771        -1.05547  
                        0.997709        -1.05656        0.0030923        -95.2237       0.00201991        -29.3017       0.00451989         92.1086  
                       0.0030923        -95.2248         0.997709        -1.05547       0.00451989         92.1087       0.00200995        -28.6404  
0.4663                0.00202742        -29.9343       0.00461943         92.1511         0.997691        -1.07922       0.00315849        -95.3309  
                      0.00461943         92.1511       0.00201622        -29.2713        0.0031585        -95.3302         0.997692        -1.07811  
                        0.997691        -1.07922       0.00315849        -95.3301       0.00202733         -29.935       0.00461943         92.1509  
                      0.00315849        -95.3312         0.997692        -1.07811       0.00461943          92.151       0.00201691        -29.2651  
0.4762                0.00203495        -30.5665       0.00471906         92.1932         0.997673        -1.10187       0.00322464        -95.4371  
                      0.00471906         92.1932       0.00202328        -29.8954       0.00322465        -95.4363         0.997675        -1.10074  
                        0.997673        -1.10187       0.00322464        -95.4362       0.00203486        -30.5674       0.00471907         92.1931  
                      0.00322464        -95.4373         0.997674        -1.10074       0.00471907         92.1931       0.00202397        -29.8891  
0.4861                0.00204259        -31.1976       0.00481879         92.2352         0.997655        -1.12451       0.00329075         -95.543  
                      0.00481879         92.2351       0.00203044        -30.5187       0.00329075        -95.5421         0.997657        -1.12336  
                        0.997655        -1.12451       0.00329075        -95.5421       0.00204249        -31.1987        0.0048188          92.235  
                      0.00329075        -95.5431         0.997656        -1.12335        0.0048188          92.235       0.00203114        -30.5124  
0.496                 0.00205032        -31.8276       0.00491862         92.2768         0.997637        -1.14714       0.00335681        -95.6487  
                      0.00491861         92.2768       0.00203769        -31.1412       0.00335681        -95.6477         0.997638        -1.14596  
                        0.997637        -1.14714       0.00335681        -95.6477       0.00205023        -31.8289       0.00491862         92.2766  
                      0.00335681        -95.6487         0.997638        -1.14596       0.00491862         92.2766       0.00203839        -31.1348  
0.505900032           0.00205816        -32.4565       0.00501853         92.3183         0.997619        -1.16976       0.00342283        -95.7541  
                      0.00501853         92.3183       0.00204503        -31.7628       0.00342283         -95.753          0.99762        -1.16856  
                        0.997619        -1.16976       0.00342283        -95.7531       0.00205807        -32.4579       0.00501854         92.3181  
                      0.00342283         -95.754          0.99762        -1.16855       0.00501854         92.3181       0.00204574        -31.7564  
0.5158                0.00206611        -33.0842       0.00511855         92.3595           0.9976        -1.19237       0.00348881        -95.8592  
                      0.00511855         92.3595       0.00205248        -32.3836        0.0034888        -95.8581         0.997601        -1.19114  
                          0.9976        -1.19237       0.00348881        -95.8582       0.00206601        -33.0857       0.00511856         92.3593  
                      0.00348881        -95.8591         0.997601        -1.19113       0.00511856         92.3593       0.00205319         -32.377  
0.525699968           0.00207415        -33.7106       0.00521866         92.4005         0.997581        -1.21497       0.00355475        -95.9641  
                      0.00521866         92.4005       0.00206001        -33.0033       0.00355474         -95.963         0.997582        -1.21371  
                        0.997581        -1.21497       0.00355474         -95.963       0.00207405        -33.7123       0.00521867         92.4003  
                      0.00355475         -95.964         0.997582        -1.21371       0.00521867         92.4003       0.00206073        -32.9967  
0.5356                0.00208229        -34.3356       0.00531888         92.4412         0.997562        -1.23756       0.00362064        -96.0688  
                      0.00531888         92.4412       0.00206764        -33.6221       0.00362063        -96.0676         0.997563        -1.23628  
                        0.997562        -1.23756       0.00362064        -96.0677       0.00208219        -34.3375       0.00531889          92.441  
                      0.00362064        -96.0686         0.997563        -1.23627       0.00531888          92.441       0.00206835        -33.6154  
0.545499968           0.00209053        -34.9594       0.00541919         92.4817         0.997542        -1.26013        0.0036865        -96.1733  
                      0.00541919         92.4817       0.00207535        -34.2397       0.00368649         -96.172         0.997544        -1.25883  
                        0.997542        -1.26013       0.00368649        -96.1721       0.00209043        -34.9614        0.0054192         92.4815  
                       0.0036865         -96.173         0.997543        -1.25882        0.0054192         92.4815       0.00207607        -34.2329  
0.5554                0.00209887        -35.5817        0.0055196          92.522         0.997523         -1.2827       0.00375231        -96.2776  
                      0.00551961          92.522       0.00208316        -34.8563        0.0037523        -96.2762         0.997524        -1.28137  
                        0.997523         -1.2827        0.0037523        -96.2763       0.00209876        -35.5839       0.00551962         92.5217  
                      0.00375231        -96.2773         0.997524        -1.28136       0.00551961         92.5217       0.00208388        -34.8494  
0.565299968            0.0021073        -36.2026       0.00562012          92.562         0.997503        -1.30526       0.00381808        -96.3817  
                      0.00562013          92.562       0.00209105        -35.4717       0.00381807        -96.3802         0.997504         -1.3039  
                        0.997503        -1.30526       0.00381808        -96.3804       0.00210719        -36.2049       0.00562014         92.5618  
                      0.00381809        -96.3813         0.997504         -1.3039       0.00562013         92.5618       0.00209178        -35.4647  
0.5752                0.00211582        -36.8219       0.00572075         92.6018         0.997483         -1.3278       0.00388382        -96.4855  
                      0.00572075         92.6018       0.00209903        -36.0859       0.00388381         -96.484         0.997484        -1.32643  
                        0.997483         -1.3278       0.00388381        -96.4842       0.00211571        -36.8244       0.00572076         92.6016  
                      0.00388383        -96.4852         0.997484        -1.32642       0.00572075         92.6015       0.00209976        -36.0787  
0.585099968           0.00212444        -37.4398       0.00582147         92.6414         0.997463        -1.35034       0.00394951        -96.5893  