! TOUCHSTONE file generated by CST MICROWAVE STUDIO
! Date and time: Thu Oct 16 13:05:19 2014
! Project name: Untitled_1.cst
# GHZ S MA R 50
0.1                   0.00199241        -19.5835       0.00102092         90.6656         0.998086       -0.232254      0.000639489         -91.575  
                      0.00102092         90.6656       0.00199424        -19.7356      0.000639489        -91.5754         0.998086       -0.232173  
                        0.998086       -0.232253      0.000639489        -91.5754       0.00199237         -19.584       0.00102092         90.6651  
                     0.000639489         -91.575         0.998086       -0.232173       0.00102092         90.6651       0.00199418        -19.7358  
0.1099                0.00201388        -21.3673       0.00112212         90.7316         0.998081        -0.25522      0.000702519        -91.7228  
                      0.00112213         90.7318       0.00201605        -21.5344      0.000702475        -91.7224          0.99808       -0.255128  
                        0.998081        -0.25521      0.000702519        -91.7238       0.00201383        -21.3728       0.00112212         90.7311  
                     0.000702524        -91.7241          0.99808       -0.255131       0.00112211         90.7317         0.002016        -21.5324  
0.1198                0.00203709        -23.1166       0.00122335         90.7976         0.998075       -0.278178      0.000765537        -91.8704  
                      0.00122337         90.7978       0.00203962        -23.2971      0.000765451         -91.869         0.998074       -0.278075  
                        0.998075       -0.278159      0.000765536        -91.8719       0.00203703        -23.1264       0.00122336          90.797  
                     0.000765543        -91.8728         0.998074        -0.27808       0.00122333         90.7981       0.00203959        -23.2934  
0.129700008           0.00206198        -24.8296       0.00132463         90.8634         0.998068       -0.301127       0.00082854        -92.0179  
                      0.00132465         90.8636        0.0020649        -25.0224      0.000828415        -92.0154         0.998068       -0.301013  
                        0.998068       -0.301101      0.000828537        -92.0198       0.00206192        -24.8431       0.00132463         90.8627  
                     0.000828547        -92.0212         0.998068        -0.30102        0.0013246         90.8642       0.00206488        -25.0172  
0.1396                0.00208849        -26.5051       0.00142595          90.929         0.998061       -0.324066      0.000891526        -92.1654  
                      0.00142597         90.9293       0.00209183        -26.7089      0.000891366        -92.1616         0.998061       -0.323942  
                        0.998061       -0.324034      0.000891522        -92.1676       0.00208842        -26.5217       0.00142595         90.9284  
                     0.000891532        -92.1694         0.998061       -0.323951       0.00142591         90.9302       0.00209182        -26.7025  
0.1495                0.00211657        -28.1421       0.00152731         90.9946         0.998054       -0.346996      0.000954495        -92.3129  
                      0.00152734         90.9949       0.00212035        -28.3557      0.000954303        -92.3078         0.998054       -0.346862  
                        0.998054       -0.346959      0.000954487        -92.3153        0.0021165        -28.1613       0.00152732         90.9938  
                     0.000954497        -92.3175         0.998054       -0.346872       0.00152727         90.9959       0.00212035        -28.3483  
0.1594                0.00214614        -29.7399       0.00162872           91.06         0.998046       -0.369917       0.00101744        -92.4604  
                      0.00162876         91.0602        0.0021504         -29.962       0.00101722         -92.454         0.998046       -0.369772  
                        0.998046       -0.369875       0.00101743         -92.463       0.00214607        -29.7611       0.00162873         91.0592  
                      0.00101744        -92.4654         0.998046       -0.369784       0.00162867         91.0614       0.00215039        -29.9539  
0.1693                0.00217717        -31.2979       0.00173019         91.1252         0.998038       -0.392828       0.00108037        -92.6079  
                      0.00173022         91.1254       0.00218191        -31.5275       0.00108013        -92.6001         0.998038       -0.392673  
                        0.998038       -0.392782       0.00108035        -92.6106       0.00217709        -31.3208       0.00173019         91.1243  
                      0.00108036        -92.6132         0.998038       -0.392686       0.00173014         91.1267       0.00218191        -31.5188  
0.1792                0.00220957        -32.8159        0.0018317         91.1903          0.99803       -0.415729       0.00114326        -92.7555  
                      0.00183175         91.1905       0.00221483         -33.052       0.00114301        -92.7464          0.99803       -0.415565  
                         0.99803        -0.41568       0.00114324        -92.7582        0.0022095        -32.8401       0.00183171         91.1894  
                      0.00114325        -92.7609         0.998029       -0.415578       0.00183165         91.1918       0.00221482        -33.0429  
0.1891                0.00224331         -34.294       0.00193328         91.2552         0.998021        -0.43862       0.00120614         -92.903  
                      0.00193333         91.2554       0.00224909        -34.5355       0.00120587        -92.8927         0.998021       -0.438447  
                        0.998021       -0.438569       0.00120611        -92.9057       0.00224323         -34.319       0.00193329         91.2542  
                      0.00120611        -92.9086          0.99802        -0.43846       0.00193323         91.2567       0.00224907        -34.5263  
0.199                 0.00227831        -35.7322       0.00203492         91.3199         0.998011       -0.461501       0.00126897        -93.0505  
                      0.00203497           91.32       0.00228463        -35.9782        0.0012687        -93.0391         0.998011       -0.461319  
                        0.998012       -0.461449       0.00126895        -93.0532       0.00227823        -35.7579       0.00203493         91.3189  
                      0.00126894        -93.0561         0.998011       -0.461333       0.00203487         91.3214       0.00228461         -35.969  
0.2089                0.00231452        -37.1309       0.00213663         91.3844         0.998001       -0.484372       0.00133178        -93.1981  
                      0.00213667         91.3845        0.0023214        -37.3806       0.00133151        -93.1856         0.998002       -0.484181  
                        0.998002        -0.48432       0.00133175        -93.2007       0.00231445         -37.157       0.00213664         91.3833  
                      0.00133173        -93.2035         0.998001       -0.484195       0.00213657         91.3859       0.00232137        -37.3715  
0.2188                0.00235189        -38.4906        0.0022384         91.4488         0.997991       -0.507233       0.00139455        -93.3455  
                      0.00223845         91.4488       0.00235933        -38.7432       0.00139429        -93.3322         0.997991       -0.507034  
                        0.997992       -0.507181       0.00139451         -93.348       0.00235182        -38.5168       0.00223841         91.4476  
                       0.0013945        -93.3508         0.997991       -0.507047       0.00223835         91.4501       0.00235929        -38.7344  
0.2287                0.00239037        -39.8119       0.00234024         91.5129         0.997981       -0.530084       0.00145729        -93.4929  
                      0.00234029         91.5129       0.00239838        -40.0666       0.00145704        -93.4789         0.997981       -0.529876  
                        0.997981       -0.530032       0.00145724        -93.4952       0.00239029         -39.838       0.00234025         91.5117  
                      0.00145722        -93.4979         0.997981        -0.52989       0.00234019         91.5142       0.00239833        -40.0582  
0.2386                0.00242989        -41.0956       0.00244215         91.5769          0.99797       -0.552925       0.00151998        -93.6401  
                       0.0024422         91.5768       0.00243849        -41.3517       0.00151976        -93.6257          0.99797       -0.552709  
                         0.99797       -0.552874       0.00151993        -93.6423       0.00242981        -41.1214       0.00244217         91.5756  
                       0.0015199        -93.6448          0.99797       -0.552722       0.00244211          91.578       0.00243843        -41.3437  
0.2485                0.00247042        -42.3423       0.00254414         91.6406         0.997959       -0.575756       0.00158263        -93.7871  
                       0.0025442         91.6405       0.00247962        -42.5993       0.00158243        -93.7724         0.997959       -0.575532  
                        0.997959       -0.575706       0.00158258        -93.7892       0.00247034        -42.3677       0.00254416         91.6392  
                      0.00158254        -93.7915         0.997959       -0.575544        0.0025441         91.6416       0.00247954        -42.5919  
0.2584                 0.0025119         -43.553       0.00264621         91.7041         0.997947       -0.598576       0.00164523         -93.934  
                      0.00264627          91.704        0.0025217        -43.8103       0.00164507        -93.9192         0.997947       -0.598345  
                        0.997948       -0.598528       0.00164518         -93.936       0.00251181        -43.5779       0.00264623         91.7027  
                      0.00164514        -93.9381         0.997947       -0.598357       0.00264617          91.705       0.00252161        -43.8035  
0.2683                0.00255428        -44.7286       0.00274836         91.7673         0.997935       -0.621387       0.00170779        -94.0806  
                      0.00274842         91.7672       0.00256469        -44.9857       0.00170766         -94.066         0.997935       -0.621148  
                        0.997936       -0.621341       0.00170774        -94.0824       0.00255419        -44.7528       0.00274838         91.7659  
                      0.00170769        -94.0843         0.997935       -0.621159       0.00274832         91.7681       0.00256459        -44.9795  
0.2782                0.00259753          -45.87        0.0028506         91.8304         0.997923       -0.644188        0.0017703         -94.227  
                      0.00285065         91.8302       0.00260855        -46.1265        0.0017702        -94.2126         0.997923       -0.643941  
                        0.997923       -0.644144       0.00177025        -94.2287       0.00259744        -45.8936       0.00285061         91.8289  
                      0.00177019        -94.2302         0.997923       -0.643952       0.00285056          91.831       0.00260843        -46.1211  
0.2881                0.00264159        -46.9783       0.00295292         91.8932          0.99791       -0.666979       0.00183276         -94.373  
                      0.00295297          91.893       0.00265323        -47.2338        0.0018327        -94.3592         0.997911       -0.666725  
                        0.997911       -0.666937        0.0018327        -94.3746        0.0026415        -47.0011       0.00295293         91.8916  
                      0.00183264        -94.3759          0.99791       -0.666735       0.00295289         91.8936        0.0026531        -47.2291  
0.298                 0.00268644        -48.0544       0.00305533         91.9557         0.997897        -0.68976       0.00189517        -94.5187  
                      0.00305538         91.9556        0.0026987        -48.3085       0.00189515        -94.5056         0.997898       -0.689498  
                        0.997898        -0.68972       0.00189511        -94.5202       0.00268634        -48.0764       0.00305534         91.9541  
                      0.00189505        -94.5212         0.997897       -0.689508        0.0030553          91.956       0.00269855        -48.3046  
0.3079                0.00273202        -49.0995       0.00315784          92.018         0.997884       -0.712532       0.00195752        -94.6641  
                      0.00315788         92.0178       0.00274491        -49.3518       0.00195754        -94.6517         0.997884       -0.712262  
                        0.997885       -0.712494       0.00195747        -94.6654       0.00273191        -49.1205       0.00315785         92.0163  
                       0.0019574        -94.6661         0.997884       -0.712271       0.00315781         92.0181       0.00274474        -49.3487  
0.3178                 0.0027783        -50.1144       0.00326044           92.08          0.99787       -0.735294       0.00201982         -94.809  
                      0.00326048         92.0799       0.00279182        -50.3648       0.00201988        -94.7976         0.997871       -0.735017  
                        0.997871       -0.735258       0.00201978        -94.8103       0.00277819        -50.1345       0.00326044         92.0783  
                      0.00201971        -94.8107         0.997871       -0.735025       0.00326041           92.08       0.00279163        -50.3624  
0.3277                0.00282525        -51.1002       0.00336313         92.1418         0.997857       -0.758046       0.00208208        -94.9536  
                      0.00336317         92.1416        0.0028394        -51.3483       0.00208216        -94.9432         0.997857       -0.757762  
                        0.997857       -0.758013       0.00208203        -94.9548       0.00282514        -51.1194       0.00336314         92.1401  
                      0.00208196        -94.9549         0.997857       -0.757768       0.00336311         92.1416        0.0028392        -51.3468  
0.3376                0.00287283        -52.0579       0.00346593         92.2033         0.997842       -0.780788       0.00214427        -95.0977  
                      0.00346597         92.2031       0.00288761        -52.3036       0.00214438        -95.0884         0.997843       -0.780497  
                        0.997843       -0.780758       0.00214423        -95.0989       0.00287272        -52.0762       0.00346593         92.2015  
                      0.00214416        -95.0988         0.997842       -0.780503        0.0034659          92.203        0.0028874         -52.303  
0.3475                0.00292102        -52.9886       0.00356882         92.2646         0.997828       -0.803521       0.00220642        -95.2414  
                      0.00356886         92.2644       0.00293643        -53.2316       0.00220655        -95.2333         0.997828       -0.803222  
                        0.997828       -0.803493       0.00220638        -95.2425       0.00292089        -53.0059       0.00356883         92.2627  
                      0.00220631        -95.2422         0.997828       -0.803228        0.0035688         92.2641        0.0029362        -53.2318  
0.3574                0.00296977        -53.8932       0.00367182         92.3255         0.997813       -0.826244        0.0022685        -95.3847  
                      0.00367186         92.3253       0.00298582        -54.1333       0.00226865        -95.3777         0.997813       -0.825938  
                        0.997813       -0.826219       0.00226847        -95.3858       0.00296964        -53.9095       0.00367183         92.3236  
                       0.0022684        -95.3853         0.997813       -0.825943        0.0036718         92.3249       0.00298557        -54.1344  
0.3673                0.00301906        -54.7725       0.00377493         92.3862         0.997798       -0.848958       0.00233054        -95.5276  
                      0.00377497          92.386       0.00303575        -55.0098        0.0023307        -95.5216         0.997798       -0.848645  
                        0.997798       -0.848935       0.00233051        -95.5287       0.00301893         -54.788       0.00377493         92.3843  
                      0.00233045        -95.5279         0.997798       -0.848649       0.00377491         92.3854       0.00303548        -55.0117  
0.3772                0.00306887        -55.6277       0.00387815         92.4466         0.997782       -0.871662       0.00239252          -95.67  
                      0.00387818         92.4464       0.00308619        -55.8618       0.00239269        -95.6651         0.997783       -0.871342  
                        0.997783       -0.871642        0.0023925        -95.6711       0.00306873        -55.6422       0.00387815         92.4446  
                      0.00239244        -95.6702         0.997782       -0.871346       0.00387813         92.4457        0.0030859        -55.8646  
0.3871                0.00311916        -56.4595       0.00398147         92.5067         0.997766       -0.894357       0.00245445         -95.812  
                       0.0039815         92.5066       0.00313712        -56.6905       0.00245462        -95.8081         0.997767        -0.89403  
                        0.997767       -0.894339       0.00245443        -95.8132       0.00311902        -56.4732       0.00398147         92.5047  
                      0.00245437        -95.8121         0.997767       -0.894033       0.00398146         92.5057       0.00313682        -56.6941  
0.397                 0.00316991        -57.2689       0.00408492         92.5665          0.99775       -0.917043       0.00251633        -95.9536  
                      0.00408494         92.5664       0.00318852        -57.4966        0.0025165        -95.9507         0.997751       -0.916709  
                        0.997751       -0.917027       0.00251631        -95.9548       0.00316977        -57.2817       0.00408491         92.5645  
                      0.00251626        -95.9536         0.997751       -0.916711        0.0040849         92.5653       0.00318819         -57.501  
0.4069                 0.0032211        -58.0567       0.00418847         92.6261         0.997734       -0.939719       0.00257816        -96.0948  
                      0.00418849         92.6259       0.00324035         -58.281       0.00257832        -96.0928         0.997734       -0.939378  
                        0.997734       -0.939705       0.00257814        -96.0961       0.00322096        -58.0686       0.00418847          92.624  
                      0.00257809        -96.0947         0.997734        -0.93938       0.00418846         92.6247          0.00324        -58.2863  
0.4168                0.00327271        -58.8237       0.00429214         92.6853         0.997717       -0.962386       0.00263993        -96.2357  
                      0.00429217         92.6852       0.00329259        -59.0446       0.00264008        -96.2344         0.997718       -0.962038  
                        0.997718       -0.962374       0.00263992         -96.237       0.00327257        -58.8348       0.00429214         92.6832  
                      0.00263988        -96.2355         0.997718       -0.962039       0.00429213         92.6838       0.00329223        -59.0507  
0.4267                0.00332471        -59.5707       0.00439594         92.7443           0.9977       -0.985044       0.00270165        -96.3762  
                      0.00439596         92.7441       0.00334524        -59.7882       0.00270179        -96.3756         0.997701       -0.984688  
                        0.997701       -0.985034       0.00270165        -96.3776       0.00332456         -59.581       0.00439593         92.7421  
                      0.00270161         -96.376         0.997701        -0.98469       0.00439592         92.7426       0.00334485         -59.795  
0.4366                0.00337709        -60.2985       0.00449985         92.8029         0.997683        -1.00769       0.00276332        -96.5164  
                      0.00449987         92.8028       0.00339825        -60.5125       0.00276345        -96.5163         0.997683        -1.00733  
                        0.997683        -1.00768       0.00276332        -96.5178       0.00337694         -60.308       0.00449984         92.8007  
                      0.00276328        -96.5162         0.997683        -1.00733       0.00449984         92.8012       0.00339785        -60.5201  
0.4465                0.00342982        -61.0077       0.00460389         92.8612         0.997665        -1.03033       0.00282494        -96.6562  
                       0.0046039         92.8611       0.00345162        -61.2183       0.00282505        -96.6567         0.997666        -1.02996  
                        0.997666        -1.03033       0.00282494        -96.6578       0.00342967        -61.0166       0.00460388          92.859  
                      0.00282491         -96.656         0.997666        -1.02996       0.00460387         92.8594        0.0034512        -61.2267  
0.4564                0.00348288        -61.6992       0.00470805         92.9193         0.997648        -1.05296       0.00288651        -96.7958  
                      0.00470807         92.9192       0.00350532        -61.9063        0.0028866        -96.7966         0.997648        -1.05258  
                        0.997648        -1.05296       0.00288651        -96.7974       0.00348273        -61.7074       0.00470804          92.917  
                      0.00288649        -96.7956         0.997648        -1.05258       0.00470804         92.9173       0.00350488        -61.9154  
0.4663                0.00353627        -62.3736       0.00481235          92.977         0.997629        -1.07558       0.00294803         -96.935  
                      0.00481235         92.9769       0.00355934        -62.5772        0.0029481        -96.9363          0.99763         -1.0752  
                         0.99763        -1.07558       0.00294803        -96.9367       0.00353612        -62.3812       0.00481233         92.9746  
                      0.00294801        -96.9349          0.99763         -1.0752       0.00481233         92.9749       0.00355888         -62.587  
0.4762                0.00358996        -63.0316       0.00491677         93.0344         0.997611        -1.09819       0.00300949         -97.074  
                      0.00491677         93.0343       0.00361367        -63.2316       0.00300954        -97.0755         0.997612         -1.0978  
                        0.997611        -1.09819        0.0030095        -97.0758       0.00358981        -63.0385       0.00491675          93.032  
                      0.00300948        -97.0739         0.997611         -1.0978       0.00491675         93.0322       0.00361319        -63.2422  
0.4861                0.00364393        -63.6737       0.00502132         93.0915         0.997592         -1.1208       0.00307091        -97.2128  
                      0.00502132         93.0914       0.00366828        -63.8702       0.00307094        -97.2145         0.997593         -1.1204  
                        0.997592         -1.1208       0.00307091        -97.2146       0.00364378        -63.6801        0.0050213         93.0891  
                       0.0030709        -97.2127         0.997593         -1.1204        0.0050213         93.0891       0.00366778        -63.8815  
0.496                 0.00369817        -64.3006         0.005126         93.1483         0.997573        -1.14339       0.00313227        -97.3513  
                      0.00512601         93.1482       0.00372315        -64.4936       0.00313228        -97.3532         0.997574        -1.14298  
                        0.997573        -1.14339       0.00313227        -97.3532       0.00369803        -64.3064       0.00512598         93.1458  
                      0.00313227        -97.3513         0.997574        -1.14298       0.00512598         93.1458       0.00372264        -64.5056  
0.505900032           0.00375268        -64.9128       0.00523082         93.2047         0.997554        -1.16598       0.00319358        -97.4896  
                      0.00523083         93.2047       0.00377829        -65.1023       0.00319358        -97.4916         0.997555        -1.16556  
                        0.997554        -1.16598       0.00319358        -97.4916       0.00375253        -64.9181        0.0052308         93.2022  
                      0.00319358        -97.4897         0.997555        -1.16556        0.0052308         93.2022       0.00377776         -65.115  
0.5158                0.00380742        -65.5109       0.00533578         93.2609         0.997534        -1.18855       0.00325484        -97.6278  
                      0.00533578         93.2609       0.00383367         -65.697       0.00325482        -97.6298         0.997535        -1.18813  
                        0.997534        -1.18855       0.00325484        -97.6298       0.00380728        -65.5158       0.00533576         93.2583  
                      0.00325485        -97.6278         0.997535        -1.18813       0.00533576         93.2582       0.00383312        -65.7103  
0.525699968            0.0038624        -66.0955       0.00544088         93.3167         0.997515        -1.21112       0.00331604        -97.7657  
                      0.00544088         93.3167       0.00388928        -66.2781       0.00331601        -97.7678         0.997515        -1.21069  
                        0.997515        -1.21112       0.00331605        -97.7678       0.00386226        -66.0999       0.00544085         93.3141  
                      0.00331605        -97.7658         0.997515        -1.21069       0.00544085          93.314       0.00388871        -66.2921  
0.5356                0.00391759         -66.667       0.00554612         93.3722         0.997495        -1.23367        0.0033772        -97.9035  
                      0.00554611         93.3722        0.0039451        -66.8462       0.00337714        -97.9056         0.997495        -1.23324  
                        0.997494        -1.23368        0.0033772        -97.9056       0.00391746         -66.671       0.00554609         93.3695  
                      0.00337721        -97.9036         0.997495        -1.23324       0.00554609         93.3694       0.00394451        -66.8608  
0.545499968           0.00397299        -67.2259        0.0056515         93.4273         0.997474        -1.25622       0.00343829        -98.0411  
                      0.00565149         93.4274       0.00400113        -67.4018       0.00343823        -98.0432         0.997475        -1.25578  
                        0.997474        -1.25622        0.0034383        -98.0432       0.00397286        -67.2296       0.00565146         93.4247  
                      0.00343831        -98.0413         0.997475        -1.25578       0.00565146         93.4244       0.00400053         -67.417  
0.5554                0.00402859        -67.7727       0.00575702         93.4822         0.997454        -1.27876       0.00349934        -98.1785  
                      0.00575701         93.4823       0.00405736        -67.9452       0.00349926        -98.1806         0.997454        -1.27831  
                        0.997453        -1.27876       0.00349934        -98.1807       0.00402846        -67.7761       0.00575699         93.4795  
                      0.00349935        -98.1788         0.997454        -1.27831       0.00575699         93.4792       0.00405673         -67.961  
0.565299968           0.00408437        -68.3078       0.00586269         93.5367         0.997433        -1.30129       0.00356033        -98.3158  
                      0.00586268         93.5368       0.00411376         -68.477       0.00356024        -98.3179         0.997433        -1.30083  
                        0.997432        -1.30129       0.00356033        -98.3181       0.00408425        -68.3109       0.00586265          93.534  
                      0.00356034        -98.3161         0.997433        -1.30083       0.00586265         93.5337       0.00411312        -68.4934  
0.5752                0.00414032        -68.8317        0.0059685         93.5909         0.997411        -1.32381       0.00362126         -98.453  
                      0.00596849          93.591       0.00417034        -68.9976       0.00362116         -98.455         0.997412        -1.32334  
                        0.997411        -1.32381       0.00362126        -98.4553       0.00414021        -68.8345       0.00596847         93.5881  
                      0.00362128        -98.4533         0.997412        -1.32334       0.00596847         93.5878       0.00416969        -69.0146  
0.585099968           0.00419644        -69.3447       0.00607447         93.6448          0.99739        -1.34632       0.00368213          -98.59  