! TOUCHSTONE file generated by CST MICROWAVE STUDIO
! Date and time: Mon Oct 20 18:01:09 2014
! Project name: Untitled_1.cst
# GHZ S MA R 50
0.1                   0.00162385        -48.5892      0.000732949         90.9808         0.998837       -0.270372       0.00056696         -91.984  
                     0.000732949         90.9808       0.00162503        -48.6218       0.00056696        -91.9841         0.998837       -0.270368  
                        0.998837       -0.270372       0.00056696        -91.9841       0.00162386        -48.5891      0.000732949         90.9808  
                      0.00056696         -91.984         0.998837       -0.270368      0.000732949         90.9808       0.00162503        -48.6218  
0.1099                0.00171366        -51.3667      0.000803972         91.1556         0.998824       -0.296997      0.000622542        -92.1526  
                     0.000804613         91.1423       0.00171502        -51.3908      0.000622542        -92.1526         0.998824       -0.297022  
                        0.998825       -0.297015      0.000622542        -92.1527       0.00171463        -51.3503      0.000804637         91.1183  
                     0.000622542        -92.1525         0.998824       -0.297008       0.00080707         91.5285       0.00171461         -51.412  
0.1198                0.00180689        -53.8902      0.000874797          91.296          0.99881       -0.323609      0.000678106        -92.3219  
                     0.000876245         91.2913       0.00180843        -53.9077      0.000678105         -92.322          0.99881       -0.323661  
                        0.998811       -0.323643      0.000678105        -92.3221       0.00180862        -53.8595      0.000876392         91.2466  
                     0.000678105        -92.3219          0.99881       -0.323633      0.000903419          92.888        0.0018077        -53.9447  
0.129700008           0.00190309        -56.1884      0.000945616         91.3987         0.998796       -0.350207      0.000733649        -92.4919  
                     0.000947849         91.4282       0.00190479         -56.201      0.000733648         -92.492         0.998795       -0.350283  
                        0.998796       -0.350257      0.000733648        -92.4921       0.00190541        -56.1459      0.000948234         91.3673  
                     0.000733648        -92.4918         0.998796       -0.350244      0.000960736         89.4034       0.00190383        -56.2495  
0.1396                0.00200187        -58.2875       0.00101675         91.4698          0.99878       -0.376792      0.000789168        -92.6624  
                      0.00101945         91.5525       0.00200372        -58.2963      0.000789167        -92.6625         0.998779       -0.376888  
                         0.99878       -0.376856      0.000789167        -92.6626       0.00200462        -58.2356       0.00102019          91.482  
                     0.000789167        -92.6623          0.99878        -0.37684       0.00102355         90.4362        0.0020026        -58.3527  
0.1495                0.00210289        -60.2106       0.00108848         91.5263         0.998763       -0.403362      0.000844662        -92.8333  
                      0.00109109         91.6642       0.00210489        -60.2166       0.00084466        -92.8334         0.998763       -0.403476  
                        0.998763       -0.403439       0.00084466        -92.8336       0.00210596        -60.1517       0.00109227         91.5919  
                      0.00084466        -92.8332         0.998763        -0.40342       0.00109481         90.8591       0.00210366        -60.2781  
0.1594                0.00220587        -61.9782       0.00116088         91.5868         0.998745       -0.429918      0.000900127        -93.0045  
                      0.00116285         91.7639       0.00220803        -61.9823      0.000900125        -93.0047         0.998745       -0.430046  
                        0.998745       -0.430005      0.000900125        -93.0048       0.00220916        -61.9143       0.00116452         91.6984  
                     0.000900125        -93.0044         0.998745       -0.429983       0.00116705         91.1329       0.00220671        -62.0465  
0.1693                0.00231057        -63.6083       0.00123383         91.6621         0.998726       -0.456458      0.000955562        -93.1761  
                      0.00123482         91.8539       0.00231288        -63.6109      0.000955559        -93.1762         0.998726       -0.456598  
                        0.998726       -0.456554      0.000955559        -93.1764       0.00231401        -63.5413       0.00123694         91.8029  
                     0.000955559        -93.1759         0.998726        -0.45653       0.00123962         91.3485       0.00231152        -63.6763  
0.1792                0.00241679        -65.1166       0.00130713         91.7538         0.998707       -0.482982       0.00101096        -93.3478  
                       0.0013071         91.9378       0.00241926        -65.1182       0.00101096        -93.3479         0.998706       -0.483132  
                        0.998707       -0.483086       0.00101096        -93.3481        0.0024203        -65.0479       0.00130954         91.9063  
                      0.00101096        -93.3476         0.998706       -0.483059       0.00131237         91.5346       0.00241786        -65.1833  
0.1891                0.00252435        -66.5166       0.00138064         91.8585         0.998686        -0.50949       0.00106633        -93.5197  
                      0.00137973         92.0202       0.00252697        -66.5176       0.00106633        -93.5198         0.998685       -0.509647  
                        0.998686         -0.5096       0.00106633          -93.52       0.00252788        -66.4476       0.00138234         92.0097  
                      0.00106633        -93.5196         0.998686       -0.509571       0.00138528          91.703       0.00252557        -66.5815  
0.199                  0.0026331        -67.8204       0.00145426         91.9721         0.998665        -0.53598       0.00112166        -93.6918  
                      0.00145274          92.105       0.00263588         -67.821       0.00112165        -93.6919         0.998664       -0.536142  
                        0.998664       -0.536095       0.00112165        -93.6921       0.00263661         -67.752       0.00145533         92.1136  
                      0.00112165        -93.6916         0.998664       -0.536064       0.00145831         91.8597       0.00263448        -67.8828  
0.2089                 0.0027429        -69.0383       0.00152795         92.0907         0.998642       -0.562454       0.00117694         -93.864  
                      0.00152607          92.195       0.00274585        -69.0386       0.00117694        -93.8641         0.998641       -0.562618  
                        0.998642       -0.562572       0.00117694        -93.8643       0.00274636        -68.9714       0.00152851         92.2184  
                      0.00117694        -93.8638         0.998642        -0.56254       0.00153147          92.008       0.00274446         -69.098  
0.2188                0.00285365        -70.1794       0.00160171          92.212         0.998619       -0.588909       0.00123219        -94.0363  
                      0.00159968         92.2908       0.00285676        -70.1795       0.00123219        -94.0365         0.998618       -0.589075  
                        0.998619        -0.58903       0.00123218        -94.0367       0.00285703        -70.1145       0.00160187         92.3244  
                      0.00123219        -94.0362         0.998618       -0.588996       0.00160476         92.1499        0.0028554         -70.236  
0.2287                0.00296524        -71.2515       0.00167554         92.3343         0.998595       -0.615347       0.00128739        -94.2087  
                       0.0016735         92.3924       0.00296852        -71.2516       0.00128739        -94.2089         0.998593       -0.615511  
                        0.998594       -0.615468       0.00128738        -94.2091       0.00296852        -71.1891       0.00167539         92.4315  
                      0.00128739        -94.2086         0.998594       -0.615433       0.00167818         92.2867       0.00296719        -71.3049  
0.2386                 0.0030776        -72.2616       0.00174944         92.4564          0.99857       -0.641766       0.00134254        -94.3812  
                      0.00174749         92.4984       0.00308104        -72.2617       0.00134254        -94.3814         0.998568       -0.641927  
                        0.998569       -0.641886       0.00134254        -94.3816       0.00308075        -72.2022       0.00174909         92.5396  
                      0.00134254         -94.381         0.998569        -0.64185       0.00175173         92.4195       0.00307975        -72.3118  
0.2485                0.00319063        -73.2159       0.00182343         92.5779         0.998544       -0.668165       0.00139764        -94.5537  
                      0.00182163         92.6078       0.00319423        -73.2159       0.00139764        -94.5539         0.998542       -0.668322  
                        0.998543       -0.668285       0.00139764        -94.5541       0.00319365        -73.1595       0.00182294         92.6485  
                      0.00139764        -94.5536         0.998543       -0.668248       0.00182542         92.5487       0.00319299        -73.2627  
0.2584                0.00330427        -74.1195       0.00189752         92.6984         0.998517       -0.694546       0.00145269        -94.7263  
                      0.00189588         92.7194       0.00330805        -74.1195       0.00145269        -94.7264         0.998515       -0.694697  
                        0.998516       -0.694663       0.00145269        -94.7266       0.00330716        -74.0664       0.00189694         92.7579  
                      0.00145269        -94.7261         0.998516       -0.694626       0.00189925          92.675       0.00330685        -74.1631  
0.2683                0.00341847        -74.9774       0.00197172         92.8176         0.998489       -0.720907       0.00150769        -94.8989  
                      0.00197024         92.8322       0.00342242        -74.9774       0.00150768         -94.899         0.998488       -0.721052  
                        0.998489       -0.721021       0.00150768        -94.8992       0.00342121        -74.9276       0.00197109         92.8676  
                      0.00150768        -94.8987         0.998489       -0.720983       0.00197322         92.7986       0.00342127        -75.0177  
0.2782                0.00353317        -75.7936       0.00204603         92.9354         0.998461       -0.747248       0.00156263        -95.0715  
                      0.00204472         92.9454       0.00353728        -75.7935       0.00156262        -95.0716         0.998459       -0.747385  
                         0.99846       -0.747358       0.00156262        -95.0718       0.00353576        -75.7472       0.00204539         92.9774  
                      0.00156262        -95.0713          0.99846        -0.74732       0.00204735         92.9199       0.00353619        -75.8307  
0.2881                0.00364831        -76.5718       0.00212047         93.0519         0.998431       -0.773569        0.0016175        -95.2441  
                      0.00211931         93.0586        0.0036526        -76.5717        0.0016175        -95.2442          0.99843       -0.773698  
                         0.99843       -0.773674        0.0016175        -95.2444       0.00365076        -76.5287       0.00211983          93.087  
                       0.0016175        -95.2439         0.998431       -0.773637       0.00212162          93.039       0.00365156        -76.6058  
0.298                 0.00376387        -77.3155       0.00219504          93.167         0.998401       -0.799869       0.00167232        -95.4166  
                      0.00219403         93.1714       0.00376833        -77.3152       0.00167232        -95.4168         0.998399       -0.799989  
                          0.9984        -0.79997       0.00167232         -95.417       0.00376616        -77.2756       0.00219443         93.1964  
                      0.00167232        -95.4165           0.9984       -0.799932       0.00219605         93.1563       0.00376734        -77.3464  
0.3079                0.00387979        -78.0274       0.00226975         93.2807          0.99837       -0.826149       0.00172707        -95.5892  
                      0.00226886         93.2835       0.00388443         -78.027       0.00172707        -95.5894         0.998368        -0.82626  
                        0.998369       -0.826244       0.00172707        -95.5895       0.00388193        -77.9907       0.00226917         93.3053  
                      0.00172707         -95.589         0.998369       -0.826207       0.00227063         93.2717       0.00388349        -78.0554  
0.3178                0.00399605        -78.7102       0.00234462         93.3931         0.998338       -0.852407       0.00178176        -95.7617  
                      0.00234384         93.3948       0.00400086        -78.7096       0.00178175        -95.7619         0.998337       -0.852509  
                        0.998337       -0.852496       0.00178175         -95.762       0.00399804        -78.6766       0.00234407         93.4136  
                      0.00178176        -95.7616         0.998338        -0.85246       0.00234538         93.3855       0.00399998        -78.7355  
0.3277                0.00411261        -79.3663       0.00241963         93.5042         0.998306       -0.878645       0.00183638        -95.9342  
                      0.00241895         93.5051       0.00411759        -79.3655       0.00183637        -95.9344         0.998304       -0.878736  
                        0.998305       -0.878728       0.00183637        -95.9345       0.00411446        -79.3356       0.00241913         93.5212  
                      0.00183637        -95.9341         0.998305       -0.878692        0.0024203         93.4977       0.00411677        -79.3889  
0.3376                0.00422944        -79.9977        0.0024948         93.6139         0.998272       -0.904861       0.00189092        -96.1066  
                      0.00249421         93.6143       0.00423459        -79.9967       0.00189092        -96.1068         0.998271       -0.904942  
                        0.998271       -0.904937       0.00189092         -96.107       0.00423115        -79.9699       0.00249435         93.6282  
                      0.00189092        -96.1065         0.998272       -0.904902       0.00249539         93.6084       0.00423383        -80.0177  
0.3475                0.00434652        -80.6064       0.00257014         93.7224         0.998238       -0.931055       0.00194539         -96.279  
                      0.00256963         93.7225       0.00435184        -80.6052       0.00194539        -96.2792         0.998237       -0.931127  
                        0.998237       -0.931125       0.00194539        -96.2793       0.00434809        -80.5813       0.00256973         93.7342  
                      0.00194539        -96.2789         0.998237       -0.931091       0.00257065         93.7177       0.00435113         -80.624  
0.3574                0.00446382        -81.1942       0.00264565         93.8297         0.998203       -0.957228       0.00199979        -96.4513  
                       0.0026452         93.8295       0.00446931        -81.1926       0.00199978        -96.4515         0.998202       -0.957291  
                        0.998202       -0.957292       0.00199978        -96.4517       0.00446525        -81.1715       0.00264528         93.8395  
                      0.00199979        -96.4512         0.998202       -0.957258       0.00264609         93.8256       0.00446866        -81.2094  
0.3673                0.00458132        -81.7624       0.00272133         93.9357         0.998167       -0.983379       0.00205411        -96.6236  
                      0.00272095         93.9355       0.00458698        -81.7605        0.0020541        -96.6238         0.998166       -0.983432  
                        0.998166       -0.983437        0.0020541        -96.6239       0.00458262        -81.7422         0.002721         93.9438  
                       0.0020541        -96.6234         0.998167       -0.983404       0.00272171         93.9323       0.00458638        -81.7753  
0.3772                  0.004699        -82.3126       0.00279719         94.0406         0.998131        -1.00951       0.00210834        -96.7957  
                      0.00279686         94.0403       0.00470483        -82.3102       0.00210834        -96.7959         0.998129        -1.00955  
                         0.99813        -1.00956       0.00210834         -96.796       0.00470017        -82.2946        0.0027969         94.0473  
                      0.00210834        -96.7956          0.99813        -1.00953       0.00279752         94.0376       0.00470428        -82.3234  
0.3871                0.00481683        -82.8459       0.00287323         94.1443         0.998093        -1.03561        0.0021625        -96.9678  
                      0.00287295         94.1439       0.00482284        -82.8432       0.00216249         -96.968         0.998092        -1.03565  
                        0.998092        -1.03566       0.00216249        -96.9681       0.00481789          -82.83       0.00287298         94.1497  
                      0.00216249        -96.9677         0.998093        -1.03563       0.00287351         94.1417       0.00482234        -82.8547  
0.397                 0.00493481        -83.3636       0.00294946         94.2468         0.998055         -1.0617       0.00221656        -97.1398  
                      0.00294922         94.2465       0.00494098        -83.3605       0.00221656          -97.14         0.998054        -1.06173  
                        0.998054        -1.06174       0.00221656          -97.14       0.00493575        -83.3497       0.00294924         94.2513  
                      0.00221656        -97.1397         0.998055        -1.06171        0.0029497         94.2446       0.00494054        -83.3705  
0.4069                0.00505291        -83.8668       0.00302588         94.3483         0.998016        -1.08776       0.00227055        -97.3116  
                      0.00302568         94.3479       0.00505925        -83.8632       0.00227054        -97.3118         0.998016        -1.08778  
                        0.998016         -1.0878       0.00227054        -97.3119       0.00505374        -83.8546       0.00302569         94.3518  
                      0.00227054        -97.3115         0.998016        -1.08777       0.00302608         94.3464       0.00505886        -83.8718  
0.4168                0.00517112        -84.3563        0.0031025         94.4486         0.997977         -1.1138       0.00232444        -97.4834  
                      0.00310233         94.4483       0.00517763        -84.3522       0.00232444        -97.4836         0.997976        -1.11382  
                        0.997976        -1.11383       0.00232443        -97.4837       0.00517184        -84.3458       0.00310234         94.4514  
                      0.00232444        -97.4833         0.997977         -1.1138       0.00310267          94.447       0.00517728        -84.3595  
0.4267                0.00528942         -84.833       0.00317931         94.5478         0.997936        -1.13982       0.00237824         -97.655  
                      0.00317918         94.5475        0.0052961        -84.8284       0.00237824        -97.6552         0.997936        -1.13983  
                        0.997936        -1.13984       0.00237823        -97.6553       0.00529004        -84.8241       0.00317918         94.5499  
                      0.00237823        -97.6549         0.997936        -1.13982       0.00317945         94.5464        0.0052958        -84.8346  
0.4366                 0.0054078        -85.2978       0.00325633         94.6459         0.997895        -1.16581       0.00243194        -97.8265  
                      0.00325622         94.6456       0.00541465        -85.2927       0.00243194        -97.8267         0.997895        -1.16582  
                        0.997895        -1.16583       0.00243194        -97.8268       0.00540833        -85.2904       0.00325622         94.6475  
                      0.00243194        -97.8264         0.997895        -1.16581       0.00325644         94.6447        0.0054144        -85.2978  
0.4465                0.00552626        -85.7514       0.00333355         94.7429         0.997854        -1.19179       0.00248555        -97.9979  
                      0.00333346         94.7427       0.00553327        -85.7457       0.00248555        -97.9981         0.997853        -1.19178  
                        0.997853         -1.1918       0.00248555        -97.9981       0.00552669        -85.7453       0.00333347         94.7441  
                      0.00248555        -97.9978         0.997854        -1.19178       0.00333364         94.7419       0.00553306        -85.7498  
0.4564                0.00564476        -86.1945       0.00341098         94.8388         0.997811        -1.21774       0.00253906        -98.1691  
                      0.00341092         94.8387       0.00565194        -86.1882       0.00253906        -98.1693         0.997811        -1.21773  
                        0.997811        -1.21775       0.00253906        -98.1694       0.00564511        -86.1896       0.00341092         94.8397  
                      0.00253906         -98.169         0.997811        -1.21772       0.00341106          94.838       0.00565178        -86.1914  
0.4663                0.00576332        -86.6277       0.00348863         94.9337         0.997768        -1.24366       0.00259247        -98.3402  
                      0.00348858         94.9336       0.00577066        -86.6208       0.00259247        -98.3404         0.997768        -1.24365  
                        0.997767        -1.24367       0.00259247        -98.3405       0.00576358        -86.6238       0.00348858         94.9342  
                      0.00259247        -98.3401         0.997768        -1.24365       0.00348868         94.9331       0.00577054        -86.6232  
0.4762                0.00588191        -87.0515       0.00356649         95.0275         0.997724        -1.26957       0.00264577        -98.5111  
                      0.00356646         95.0275       0.00588941         -87.044       0.00264577        -98.5114         0.997724        -1.26955  
                        0.997724        -1.26957       0.00264577        -98.5114       0.00588209        -87.0487       0.00356646         95.0277  
                      0.00264577        -98.5111         0.997724        -1.26955       0.00356653          95.027       0.00588933        -87.0457  
0.4861                0.00600052        -87.4666       0.00364457         95.1203         0.997679        -1.29545       0.00269897        -98.6819  
                      0.00364455         95.1203       0.00600819        -87.4584       0.00269897        -98.6821          0.99768        -1.29543  
                        0.997679        -1.29545       0.00269897        -98.6821       0.00600063        -87.4647       0.00364456         95.1203  
                      0.00269897        -98.6819          0.99768        -1.29543       0.00364459         95.1199       0.00600815        -87.4595  
0.496                 0.00611914        -87.8734       0.00372287          95.212         0.997634        -1.32131       0.00275206        -98.8525  
                      0.00372287          95.212       0.00612698        -87.8646       0.00275207        -98.8527         0.997635        -1.32128  
                        0.997634        -1.32131       0.00275207        -98.8527       0.00611919        -87.8722       0.00372287         95.2118  
                      0.00275206        -98.8525         0.997635        -1.32128       0.00372288         95.2117       0.00612697         -87.865  
0.505900032           0.00623777        -88.2723        0.0038014         95.3027         0.997588        -1.34714       0.00280505        -99.0229  
                      0.00380141         95.3027       0.00624577        -88.2628       0.00280505        -99.0232         0.997589        -1.34712  
                        0.997588        -1.34714       0.00280505        -99.0232       0.00623776        -88.2719       0.00380141         95.3023  
                      0.00280505        -99.0229         0.997589        -1.34712        0.0038014         95.3024        0.0062458        -88.2628  
0.5158                 0.0063564        -88.6637       0.00388016         95.3923         0.997541        -1.37295       0.00285792        -99.1931  
                      0.00388017         95.3924       0.00636456        -88.6536       0.00285792        -99.1934         0.997542        -1.37293  
                        0.997541        -1.37295       0.00285792        -99.1934       0.00635633         -88.664       0.00388018         95.3918  
                      0.00285792        -99.1932         0.997542        -1.37293       0.00388015         95.3921       0.00636462        -88.6531  
0.525699968           0.00647502        -89.0482       0.00395914         95.4809         0.997494        -1.39874       0.00291067        -99.3632  
                      0.00395917          95.481       0.00648334        -89.0374       0.00291068        -99.3635         0.997495        -1.39872  
                        0.997494        -1.39874       0.00291068        -99.3635       0.00647489         -89.049       0.00395917         95.4802  
                      0.00291067        -99.3632         0.997495        -1.39872       0.00395912         95.4808       0.00648343        -89.0365  
0.5356                0.00659361         -89.426       0.00403837         95.5685         0.997445        -1.42451       0.00296331        -99.5331  
                       0.0040384         95.5685        0.0066021        -89.4145       0.00296332        -99.5333         0.997447        -1.42448  
                        0.997446         -1.4245       0.00296332        -99.5333       0.00659343        -89.4273        0.0040384         95.5677  
                      0.00296332        -99.5331         0.997447        -1.42448       0.00403834         95.5684       0.00660222        -89.4132  
0.545499968           0.00671218        -89.7974       0.00411782          95.655         0.997397        -1.45025       0.00301584        -99.7027  
                      0.00411786          95.655       0.00672083        -89.7852       0.00301584         -99.703         0.997398        -1.45023  
                        0.997397        -1.45025       0.00301584         -99.703       0.00671196        -89.7992       0.00411787         95.6541  
                      0.00301584        -99.7028         0.997398        -1.45023       0.00411779         95.6549       0.00672098        -89.7837  
0.5554                0.00683072        -90.1628       0.00419752         95.7404         0.997347        -1.47597       0.00306824        -99.8722  
                      0.00419756         95.7405       0.00683953          -90.15       0.00306825        -99.8725         0.997349        -1.47595  
                        0.997348        -1.47596       0.00306825        -99.8725       0.00683045         -90.165       0.00419757         95.7395  
                      0.00306824        -99.8723         0.997349        -1.47595       0.00419748         95.7404       0.00683971        -90.1481  
0.565299968           0.00694921        -90.5225       0.00427745         95.8249         0.997297        -1.50166       0.00312052        -100.041  
                       0.0042775          95.825       0.00695819         -90.509       0.00312053        -100.042         0.997299        -1.50164  
                        0.997297        -1.50166       0.00312053        -100.042       0.00694891        -90.5251       0.00427751         95.8239  
                      0.00312052        -100.042         0.997299        -1.50164       0.00427741         95.8249       0.00695839        -90.5069  
0.5752                0.00706766        -90.8768       0.00435764         95.9083         0.997246        -1.52734       0.00317267         -100.21  
                      0.00435769         95.9084        0.0070768        -90.8625       0.00317268        -100.211         0.997248        -1.52731  
                        0.997247        -1.52733       0.00317268        -100.211       0.00706732        -90.8796       0.00435769         95.9072  
                      0.00317268        -100.211         0.997248        -1.52731       0.00435759         95.9083       0.00707702        -90.8602  
0.585099968           0.00718606        -91.2258       0.00443806         95.9906         0.997195        -1.55298        0.0032247        -100.379  