! TOUCHSTONE file generated by CST MICROWAVE STUDIO
! Date and time: Wed Oct 15 11:45:50 2014
! Project name: Untitled_1.cst
# GHZ S MA R 50
0.1                   0.00376915        -5.42535       0.00210021         90.1297         0.996164       -0.456302       0.00134133        -91.3209  
                      0.00210021         90.1297       0.00376884        -5.36546       0.00134133        -91.3207         0.996164       -0.456186  
                        0.996164       -0.456302       0.00134133        -91.3207       0.00376913        -5.42546       0.00210021         90.1296  
                      0.00134133        -91.3209         0.996164       -0.456186       0.00210021         90.1296       0.00376881        -5.36611  
0.1099                0.00376971        -5.96811       0.00230816         90.1361         0.996149       -0.501419        0.0014736        -91.4541  
                      0.00230816         90.1361       0.00376933        -5.90196        0.0014736        -91.4539         0.996149        -0.50129  
                        0.996149        -0.50142        0.0014736        -91.4539       0.00376969        -5.96818       0.00230816          90.136  
                       0.0014736        -91.4541         0.996149        -0.50129       0.00230816         90.1359       0.00376931        -5.90251  
0.1198                0.00377026        -6.51421       0.00251612         90.1447         0.996132       -0.546519       0.00160585        -91.5853  
                      0.00251612         90.1446        0.0037698        -6.44186       0.00160585        -91.5851         0.996132       -0.546377  
                        0.996132        -0.54652       0.00160585        -91.5851       0.00377024        -6.51426       0.00251612         90.1445  
                      0.00160585        -91.5853         0.996132       -0.546377       0.00251612         90.1444       0.00376978        -6.44233  
0.129700008           0.00377078        -7.06377       0.00272408          90.155         0.996115       -0.591601       0.00173805        -91.7151  
                      0.00272408         90.1549       0.00377024        -6.98526       0.00173805        -91.7149         0.996115       -0.591446  
                        0.996115       -0.591602       0.00173805        -91.7148       0.00377076        -7.06379       0.00272408         90.1548  
                      0.00173805        -91.7151         0.996115       -0.591447       0.00272408         90.1546       0.00377024        -6.98565  
0.1396                0.00377127        -7.61687       0.00293206         90.1665         0.996096       -0.636665       0.00187021        -91.8436  
                      0.00293206         90.1664       0.00377065        -7.53224       0.00187021        -91.8434         0.996097       -0.636497  
                        0.996096       -0.636666       0.00187022        -91.8434       0.00377125        -7.61687       0.00293206         90.1663  
                      0.00187021        -91.8436         0.996097       -0.636499       0.00293206         90.1662       0.00377065        -7.53257  
0.1495                0.00377172         -8.1736       0.00314007         90.1792         0.996077        -0.68171       0.00200234        -91.9712  
                      0.00314007         90.1791       0.00377101         -8.0829       0.00200234        -91.9709         0.996077       -0.681529  
                        0.996077       -0.681711       0.00200234        -91.9709        0.0037717        -8.17359       0.00314007          90.179  
                      0.00200234        -91.9712         0.996077       -0.681531       0.00314007         90.1788       0.00377102        -8.08318  
0.1594                0.00377212        -8.73406       0.00334811         90.1927         0.996056       -0.726735       0.00213442         -92.098  
                      0.00334811         90.1926       0.00377132        -8.63731       0.00213442        -92.0977         0.996056       -0.726542  
                        0.996056       -0.726736       0.00213442        -92.0977       0.00377211        -8.73402       0.00334811         90.1925  
                      0.00213442         -92.098         0.996056       -0.726544       0.00334811         90.1923       0.00377134        -8.63756  
0.1693                0.00377248         -9.2983       0.00355619          90.207         0.996033        -0.77174       0.00226645        -92.2241  
                      0.00355619         90.2068       0.00377157        -9.19557       0.00226645        -92.2238         0.996034       -0.771535  
                        0.996033       -0.771741       0.00226645        -92.2238       0.00377247        -9.29825       0.00355618         90.2067  
                      0.00226645        -92.2241         0.996034       -0.771537       0.00355618         90.2065        0.0037716        -9.19579  
0.1792                0.00377277        -9.86641       0.00376431         90.2217          0.99601       -0.816724       0.00239843        -92.3497  
                      0.00376431         90.2216       0.00377175        -9.75773       0.00239843        -92.3494          0.99601       -0.816507  
                         0.99601       -0.816725       0.00239843        -92.3494       0.00377276        -9.86635       0.00376431         90.2215  
                      0.00239843        -92.3497          0.99601       -0.816509        0.0037643         90.2213       0.00377179        -9.75793  
0.1891                  0.003773        -10.4385       0.00397248          90.237         0.995986       -0.861687       0.00253037        -92.4748  
                      0.00397248         90.2369       0.00377187        -10.3239       0.00253037        -92.4745         0.995986       -0.861458  
                        0.995986       -0.861689       0.00253037        -92.4745         0.003773        -10.4384       0.00397248         90.2367  
                      0.00253037        -92.4748         0.995986        -0.86146       0.00397248         90.2365       0.00377192        -10.3241  
0.199                 0.00377316        -11.0145       0.00418071         90.2527          0.99596       -0.906629       0.00266225        -92.5995  
                      0.00418071         90.2526       0.00377191        -10.8941       0.00266225        -92.5991          0.99596       -0.906387  
                         0.99596        -0.90663       0.00266225        -92.5991       0.00377316        -11.0144       0.00418071         90.2524  
                      0.00266224        -92.5995          0.99596        -0.90639        0.0041807         90.2522       0.00377197        -10.8942  
0.2089                0.00377324        -11.5946         0.004389         90.2687         0.995933       -0.951548       0.00279407        -92.7238  
                        0.004389         90.2685       0.00377187        -11.4684       0.00279407        -92.7234         0.995934       -0.951295  
                        0.995933        -0.95155       0.00279407        -92.7234       0.00377325        -11.5946         0.004389         90.2683  
                      0.00279407        -92.7238         0.995934       -0.951297         0.004389         90.2682       0.00377194        -11.4685  
0.2188                0.00377324        -12.1789       0.00459736         90.2849         0.995905       -0.996445       0.00292584        -92.8478  
                      0.00459736         90.2848       0.00377174        -12.0468       0.00292584        -92.8474         0.995906        -0.99618  
                        0.995905       -0.996446       0.00292584        -92.8474       0.00377325        -12.1788       0.00459736         90.2846  
                      0.00292584        -92.8478         0.995906       -0.996182       0.00459736         90.2844       0.00377182         -12.047  
0.2287                0.00377316        -12.7673        0.0048058         90.3013         0.995876        -1.04132       0.00305754        -92.9715  
                       0.0048058         90.3012       0.00377152        -12.6295       0.00305754        -92.9711         0.995877        -1.04104  
                        0.995876        -1.04132       0.00305755        -92.9711       0.00377318        -12.7672        0.0048058          90.301  
                      0.00305754        -92.9715         0.995877        -1.04104        0.0048058         90.3008       0.00377161        -12.6297  
0.2386                  0.003773          -13.36       0.00501432         90.3179         0.995846        -1.08617       0.00318918         -93.095  
                      0.00501432         90.3178       0.00377121        -13.2165       0.00318919        -93.0946         0.995847        -1.08588  
                        0.995846        -1.08617       0.00318919        -93.0946       0.00377302        -13.3599       0.00501432         90.3176  
                      0.00318918         -93.095         0.995847        -1.08588       0.00501432         90.3174       0.00377131        -13.2167  
0.2485                0.00377274         -13.957       0.00522293         90.3347         0.995815        -1.13099       0.00332076        -93.2182  
                      0.00522293         90.3346        0.0037708        -13.8078       0.00332076        -93.2178         0.995816         -1.1307  
                        0.995815          -1.131       0.00332077        -93.2178       0.00377276        -13.9569       0.00522293         90.3343  
                      0.00332076        -93.2182         0.995816         -1.1307       0.00522292         90.3342       0.00377091         -13.808  
0.2584                0.00377239        -14.5583       0.00543163         90.3515         0.995783         -1.1758       0.00345227        -93.3412  
                      0.00543163         90.3514       0.00377029        -14.4035       0.00345227        -93.3408         0.995783        -1.17549  
                        0.995783         -1.1758       0.00345228        -93.3408       0.00377242        -14.5582       0.00543163         90.3511  
                      0.00345227        -93.3412         0.995783        -1.17549       0.00543162          90.351       0.00377041        -14.4037  
0.2683                0.00377194         -15.164       0.00564044         90.3684          0.99575        -1.22057       0.00358372         -93.464  
                      0.00564043         90.3683       0.00376967        -15.0037       0.00358372        -93.4636          0.99575        -1.22025  
                         0.99575        -1.22058       0.00358372        -93.4636       0.00377197        -15.1639       0.00564043          90.368  
                      0.00358372         -93.464          0.99575        -1.22025       0.00564043         90.3679        0.0037698        -15.0039  
0.2782                0.00377139        -15.7742       0.00584934         90.3853         0.995715        -1.26533       0.00371509        -93.5867  
                      0.00584934         90.3852       0.00376895        -15.6083       0.00371509        -93.5862         0.995716        -1.26499  
                        0.995715        -1.26533       0.00371509        -93.5862       0.00377143        -15.7741       0.00584933         90.3849  
                      0.00371509        -93.5867         0.995716          -1.265       0.00584933         90.3848       0.00376909        -15.6085  
0.2881                0.00377074        -16.3888       0.00605836         90.4022          0.99568        -1.31006       0.00384638        -93.7091  
                      0.00605836         90.4022       0.00376812        -16.2175       0.00384638        -93.7086         0.995681        -1.30971  
                         0.99568        -1.31006       0.00384639        -93.7086       0.00377079        -16.3888       0.00605835         90.4019  
                      0.00384638        -93.7091         0.995681        -1.30971       0.00605835         90.4017       0.00376827        -16.2177  
0.298                 0.00376999         -17.008       0.00626749         90.4192         0.995644        -1.35476        0.0039776        -93.8314  
                      0.00626749         90.4191       0.00376719        -16.8312        0.0039776        -93.8309         0.995644         -1.3544  
                        0.995644        -1.35476       0.00397761        -93.8309       0.00377004         -17.008       0.00626748         90.4188  
                       0.0039776        -93.8314         0.995644         -1.3544       0.00626748         90.4186       0.00376734        -16.8315  
0.3079                0.00376913        -17.6318       0.00647675          90.436         0.995606        -1.39943       0.00410874        -93.9536  
                      0.00647674          90.436       0.00376614        -17.4496       0.00410874         -93.953         0.995607        -1.39907  
                        0.995606        -1.39944       0.00410875         -93.953       0.00376919        -17.6318       0.00647673         90.4356  
                      0.00410874        -93.9536         0.995607        -1.39907       0.00647673         90.4355        0.0037663        -17.4499  
0.3178                0.00376817        -18.2602       0.00668613         90.4529         0.995568        -1.44409        0.0042398        -94.0755  
                      0.00668612         90.4528       0.00376498        -18.0726        0.0042398         -94.075         0.995569        -1.44371  
                        0.995568        -1.44409       0.00423981         -94.075       0.00376824        -18.2602       0.00668611         90.4525  
                       0.0042398        -94.0755         0.995569        -1.44371       0.00668611         90.4524       0.00376515        -18.0729  
0.3277                0.00376711        -18.8933       0.00689564         90.4697         0.995528        -1.48871       0.00437078        -94.1974  
                      0.00689563         90.4696        0.0037637        -18.7004       0.00437078        -94.1968         0.995529        -1.48832  
                        0.995528        -1.48871       0.00437078        -94.1968       0.00376718        -18.8932       0.00689562         90.4692  
                      0.00437078        -94.1974         0.995529        -1.48832       0.00689562         90.4691       0.00376388        -18.7007  
0.3376                0.00376594         -19.531       0.00710528         90.4863         0.995488        -1.53331       0.00450167        -94.3191  
                      0.00710528         90.4863       0.00376232        -19.3329       0.00450167        -94.3185         0.995489        -1.53291  
                        0.995488        -1.53331       0.00450168        -94.3185       0.00376602         -19.531       0.00710527         90.4859  
                      0.00450167        -94.3191         0.995489        -1.53291       0.00710526         90.4858       0.00376251        -19.3332  
0.3475                0.00376467        -20.1736       0.00731507         90.5029         0.995447        -1.57788       0.00463248        -94.4407  
                      0.00731507         90.5029       0.00376082        -19.9702       0.00463248        -94.4401         0.995448        -1.57747  
                        0.995447        -1.57788       0.00463248        -94.4401       0.00376475        -20.1736       0.00731506         90.5025  
                      0.00463247        -94.4407         0.995447        -1.57747       0.00731505         90.5024       0.00376102        -19.9706  
0.3574                0.00376329        -20.8209       0.00752501         90.5194         0.995404        -1.62243       0.00476319        -94.5621  
                        0.007525         90.5194       0.00375921        -20.6123       0.00476319        -94.5615         0.995405        -1.62201  
                        0.995404        -1.62243       0.00476319        -94.5615       0.00376338        -20.8209       0.00752499          90.519  
                      0.00476319        -94.5621         0.995405        -1.62201       0.00752498         90.5189       0.00375942        -20.6127  
0.3673                0.00376181        -21.4731       0.00773509         90.5358         0.995361        -1.66694       0.00489381        -94.6834  
                      0.00773509         90.5357       0.00375749        -21.2594       0.00489381        -94.6828         0.995362        -1.66651  
                        0.995361        -1.66695       0.00489382        -94.6828       0.00376191        -21.4731       0.00773507         90.5353  
                      0.00489381        -94.6834         0.995362        -1.66652       0.00773507         90.5352       0.00375771        -21.2598  
0.3772                0.00376023        -22.1302       0.00794533          90.552         0.995317        -1.71144       0.00502434        -94.8046  
                      0.00794533          90.552       0.00375567        -21.9114       0.00502434         -94.804         0.995318        -1.71099  
                        0.995317        -1.71144       0.00502434         -94.804       0.00376034        -22.1302       0.00794531         90.5515  
                      0.00502434        -94.8046         0.995318          -1.711       0.00794531         90.5515       0.00375589        -21.9118  
0.3871                0.00375855        -22.7921       0.00815573         90.5681         0.995271         -1.7559       0.00515477        -94.9257  
                      0.00815573          90.568       0.00375373        -22.5683       0.00515477         -94.925         0.995273        -1.75545  
                        0.995271         -1.7559       0.00515477         -94.925       0.00375867        -22.7921       0.00815571         90.5676  
                      0.00515477        -94.9257         0.995272        -1.75545        0.0081557         90.5675       0.00375397        -22.5688  
0.397                 0.00375678        -23.4591       0.00836629          90.584         0.995225        -1.80034        0.0052851        -95.0466  
                      0.00836629          90.584       0.00375169        -23.2303        0.0052851        -95.0459         0.995227        -1.79988  
                        0.995225        -1.80034       0.00528511        -95.0459        0.0037569        -23.4591       0.00836627         90.5835  
                       0.0052851        -95.0466         0.995226        -1.79988       0.00836627         90.5835       0.00375194        -23.2307  
0.4069                0.00375491         -24.131       0.00857703         90.5998         0.995178        -1.84475       0.00541533        -95.1674  
                      0.00857703         90.5997       0.00374955        -23.8973       0.00541533        -95.1667          0.99518        -1.84427  
                        0.995178        -1.84475       0.00541534        -95.1667       0.00375503         -24.131         0.008577         90.5993  
                      0.00541533        -95.1674         0.995179        -1.84428         0.008577         90.5992       0.00374981        -23.8978  
0.4168                0.00375295         -24.808       0.00878793         90.6154          0.99513        -1.88913       0.00554546        -95.2881  
                      0.00878793         90.6153       0.00374731        -24.5695       0.00554546        -95.2874         0.995132        -1.88865  
                         0.99513        -1.88913       0.00554547        -95.2874       0.00375308         -24.808        0.0087879         90.6149  
                      0.00554546        -95.2881         0.995132        -1.88865        0.0087879         90.6148       0.00374758        -24.5699  
0.4267                 0.0037509        -25.4901       0.00899901         90.6308         0.995081        -1.93348       0.00567549        -95.4086  
                      0.00899901         90.6308       0.00374498        -25.2467       0.00567549        -95.4079         0.995083        -1.93299  
                        0.995081        -1.93348       0.00567549        -95.4079       0.00375104        -25.4901       0.00899898         90.6303  
                      0.00567548        -95.4086         0.995083        -1.93299       0.00899898         90.6302       0.00374525        -25.2472  
0.4366                0.00374876        -26.1773       0.00921028          90.646         0.995032        -1.97781        0.0058054        -95.5291  
                      0.00921027          90.646       0.00374255        -25.9292        0.0058054        -95.5284         0.995033        -1.97731  
                        0.995032        -1.97781        0.0058054        -95.5284       0.00374891        -26.1773       0.00921024         90.6455  
                       0.0058054        -95.5291         0.995033        -1.97731       0.00921024         90.6454       0.00374283        -25.9297  
0.4465                0.00374654        -26.8696       0.00942172          90.661         0.994981        -2.02211       0.00593521        -95.6494  
                      0.00942172          90.661       0.00374003        -26.6169       0.00593521        -95.6487         0.994983         -2.0216  
                        0.994981        -2.02211       0.00593521        -95.6487        0.0037467        -26.8697       0.00942168         90.6605  
                      0.00593521        -95.6494         0.994982         -2.0216       0.00942168         90.6605       0.00374032        -26.6174  
0.4564                0.00374425        -27.5672       0.00963336         90.6759          0.99493        -2.06638        0.0060649        -95.7696  
                      0.00963336         90.6758       0.00373742        -27.3099        0.0060649        -95.7689         0.994931        -2.06586  
                         0.99493        -2.06638       0.00606491        -95.7689       0.00374442        -27.5672       0.00963332         90.6753  
                       0.0060649        -95.7696         0.994931        -2.06586       0.00963332         90.6753       0.00373773        -27.3103  
0.4663                0.00374189          -28.27       0.00984518         90.6905         0.994877        -2.11062       0.00619449        -95.8897  
                      0.00984518         90.6905       0.00373474        -28.0082       0.00619448        -95.8889         0.994879        -2.11009  
                        0.994877        -2.11062       0.00619449        -95.8889       0.00374206          -28.27       0.00984514         90.6899  
                      0.00619448        -95.8897         0.994879        -2.11009       0.00984514         90.6899       0.00373505        -28.0086  
0.4762                0.00373945        -28.9781        0.0100572         90.7049         0.994824        -2.15484       0.00632395        -96.0096  
                       0.0100572         90.7049       0.00373198        -28.7118       0.00632395        -96.0088         0.994825        -2.15429  
                        0.994824        -2.15484       0.00632395        -96.0088       0.00373963        -28.9781        0.0100572         90.7043  
                      0.00632395        -96.0096         0.994825        -2.15429        0.0100572         90.7043        0.0037323        -28.7122  
0.4861                0.00373696        -29.6915        0.0102694         90.7191          0.99477        -2.19903        0.0064533        -96.1294  
                       0.0102694         90.7191       0.00372914        -29.4209        0.0064533        -96.1286         0.994771        -2.19847  
                         0.99477        -2.19903        0.0064533        -96.1286       0.00373715        -29.6915        0.0102694         90.7185  
                       0.0064533        -96.1294         0.994771        -2.19847        0.0102694         90.7185       0.00372948        -29.4213  
0.496                  0.0037344        -30.4103        0.0104819          90.733         0.994715        -2.24319       0.00658253        -96.2491  
                       0.0104819          90.733       0.00372625        -30.1354       0.00658253        -96.2483         0.994717        -2.24262  
                        0.994715        -2.24319       0.00658253        -96.2483        0.0037346        -30.4103        0.0104818         90.7324  
                      0.00658253        -96.2491         0.994716        -2.24262        0.0104818         90.7324       0.00372659        -30.1357  
0.505900032            0.0037318        -31.1345        0.0106945         90.7467         0.994659        -2.28732       0.00671163        -96.3687  
                       0.0106945         90.7467       0.00372329        -30.8553       0.00671163        -96.3679         0.994661        -2.28674  
                        0.994659        -2.28732       0.00671163        -96.3679         0.003732        -31.1345        0.0106944         90.7462  
                      0.00671163        -96.3687         0.994661        -2.28674        0.0106944         90.7462       0.00372364        -30.8557  
0.5158                0.00372915        -31.8641        0.0109073         90.7602         0.994602        -2.33142       0.00684062        -96.4881  
                       0.0109073         90.7602       0.00372028        -31.5808       0.00684062        -96.4873         0.994604        -2.33083  
                        0.994602        -2.33142       0.00684061        -96.4873       0.00372936         -31.864        0.0109073         90.7596  
                      0.00684062        -96.4881         0.994604        -2.33083        0.0109073         90.7596       0.00372064        -31.5811  
0.525699968           0.00372646        -32.5992        0.0111204         90.7735         0.994545        -2.37549       0.00696947        -96.6074  
                       0.0111204         90.7735       0.00371722        -32.3119       0.00696947        -96.6066         0.994547         -2.3749  
                        0.994545        -2.37549       0.00696947        -96.6066       0.00372668        -32.5991        0.0111203         90.7729  
                      0.00696947        -96.6075         0.994547         -2.3749        0.0111203         90.7729        0.0037176        -32.3121  
0.5356                0.00372373        -33.3397        0.0113337         90.7865         0.994487        -2.41954        0.0070982        -96.7266  
                       0.0113337         90.7865       0.00371412        -33.0485        0.0070982        -96.7258         0.994488        -2.41893  
                        0.994487        -2.41954        0.0070982        -96.7258       0.00372396        -33.3396        0.0113336         90.7859  
                       0.0070982        -96.7266         0.994488        -2.41893        0.0113336         90.7859       0.00371451        -33.0487  
0.545499968           0.00372098        -34.0858        0.0115472         90.7992         0.994427        -2.46356        0.0072268        -96.8457  
                       0.0115472         90.7992       0.00371099        -33.7908        0.0072268        -96.8448         0.994429        -2.46294  
                        0.994427        -2.46356        0.0072268        -96.8448       0.00372122        -34.0857        0.0115471         90.7986  
                       0.0072268        -96.8457         0.994429        -2.46294        0.0115471         90.7986       0.00371138        -33.7909  
0.5554                0.00371822        -34.8375        0.0117609         90.8117         0.994367        -2.50754       0.00735527        -96.9646  
                       0.0117609         90.8117       0.00370783        -34.5388       0.00735527        -96.9637          0.99437        -2.50692  
                        0.994367        -2.50754       0.00735527        -96.9637       0.00371846        -34.8374        0.0117608         90.8111  
                      0.00735527        -96.9646          0.99437        -2.50692        0.0117608         90.8111       0.00370823        -34.5388  
0.565299968           0.00371544        -35.5948        0.0119748         90.8239         0.994307        -2.55151        0.0074836        -97.0834  
                       0.0119748          90.824       0.00370464        -35.2924        0.0074836        -97.0825         0.994309        -2.55087  
                        0.994307         -2.5515        0.0074836        -97.0825       0.00371569        -35.5946        0.0119747         90.8233  
                       0.0074836        -97.0834         0.994309        -2.55087        0.0119747         90.8233       0.00370506        -35.2924  
0.5752                0.00371265        -36.3577         0.012189         90.8359         0.994245        -2.59544        0.0076118         -97.202  
                        0.012189         90.8359       0.00370145        -36.0518        0.0076118        -97.2011         0.994247        -2.59479  
                        0.994245        -2.59544        0.0076118        -97.2011       0.00371291        -36.3575        0.0121889         90.8353  
                       0.0076118         -97.202         0.994247        -2.59479        0.0121889         90.8353       0.00370188        -36.0518  
0.585099968           0.00370987        -37.1262        0.0124034         90.8476         0.994183        -2.63934       0.00773986        -97.3206  