! TOUCHSTONE file generated by CST MICROWAVE STUDIO
! Date and time: Mon Oct 20 11:14:17 2014
! Project name: Untitled_1.cst
# GHZ S MA R 50
0.1                   0.00183308         -6.3578      0.000987038         90.3553         0.998136       -0.233048       0.00068014        -91.0776  
                     0.000987038         90.3553       0.00183332        -6.43409       0.00068014        -91.0769         0.998136       -0.233129  
                        0.998136       -0.233048       0.00068014         -91.077       0.00183307         -6.3578      0.000987038         90.3551  
                      0.00068014        -91.0776         0.998136       -0.233128      0.000987038         90.3551       0.00183336         -6.4353  
0.1099                0.00183387        -6.99459       0.00108467         90.3812         0.998128       -0.256113      0.000747208        -91.1879  
                      0.00108466         90.3817       0.00183421        -7.07581      0.000747207        -91.1872         0.998128       -0.256185  
                        0.998128       -0.256104      0.000747207        -91.1872       0.00183391        -6.99525       0.00108466         90.3807  
                     0.000747208        -91.1879         0.998128       -0.256175       0.00108466          90.381       0.00183427        -7.07882  
0.1198                0.00183468        -7.63448       0.00118232         90.4103          0.99812       -0.279167       0.00081426         -91.296  
                       0.0011823         90.4112       0.00183512        -7.72091       0.00081426        -91.2952         0.998121       -0.279232  
                         0.99812       -0.279149       0.00081426        -91.2952       0.00183478        -7.63579        0.0011823         90.4096  
                      0.00081426        -91.2959          0.99812       -0.279215       0.00118229           90.41        0.0018352        -7.72553  
0.129700008           0.00183552        -8.27757       0.00127999         90.4418         0.998112       -0.302209      0.000881297        -91.4024  
                      0.00127996         90.4429       0.00183605        -8.36946      0.000881296        -91.4016         0.998112       -0.302269  
                        0.998111       -0.302183      0.000881296        -91.4016       0.00183566        -8.27949       0.00127996          90.441  
                     0.000881297        -91.4024         0.998112       -0.302245       0.00127994         90.4415       0.00183616         -8.3755  
0.1396                0.00183637        -8.92393       0.00137767         90.4751         0.998102       -0.325239      0.000948316        -91.5075  
                      0.00137764         90.4764       0.00183701        -9.02152      0.000948315        -91.5066         0.998103       -0.325297  
                        0.998102       -0.325206      0.000948315        -91.5067       0.00183656        -8.92646       0.00137764         90.4742  
                     0.000948316        -91.5075         0.998103       -0.325267       0.00137762         90.4749       0.00183714        -9.02882  
0.1495                0.00183724        -9.57367       0.00147538         90.5098         0.998093       -0.348258       0.00101532        -91.6116  
                      0.00147534         90.5113       0.00183799        -9.67715       0.00101532        -91.6106         0.998093       -0.348314  
                        0.998092       -0.348218       0.00101531        -91.6106       0.00183746        -9.57677       0.00147534         90.5089  
                      0.00101532        -91.6115         0.998093       -0.348279       0.00147532         90.5096       0.00183814        -9.68555  
0.1594                0.00183814        -10.2269       0.00157312         90.5457         0.998082       -0.371264        0.0010823        -91.7148  
                      0.00157307         90.5473       0.00183899        -10.3364        0.0010823        -91.7137         0.998083       -0.371321  
                        0.998082       -0.371219        0.0010823        -91.7138       0.00183838        -10.2305       0.00157307         90.5447  
                       0.0010823        -91.7147         0.998083       -0.371281       0.00157305         90.5455       0.00183915        -10.3458  
0.1693                0.00183904        -10.8836       0.00167088         90.5825         0.998071       -0.394259       0.00114926        -91.8173  
                      0.00167083         90.5841          0.00184        -10.9994       0.00114926        -91.8161         0.998072       -0.394318  
                        0.998071       -0.394209       0.00114926        -91.8162       0.00183931        -10.8877       0.00167083         90.5815  
                      0.00114926        -91.8172         0.998072       -0.394274       0.00167081         90.5823       0.00184018        -11.0095  
0.1792                0.00183996        -11.5439       0.00176868           90.62          0.99806       -0.417241       0.00121619        -91.9191  
                      0.00176863         90.6217       0.00184103        -11.6661       0.00121619        -91.9179          0.99806       -0.417304  
                        0.998059       -0.417187       0.00121619         -91.918       0.00184024        -11.5485       0.00176863          90.619  
                      0.00121619        -91.9191          0.99806       -0.417256        0.0017686         90.6198       0.00184123        -11.6769  
0.1891                0.00184089        -12.2079       0.00186651          90.658         0.998048       -0.440212       0.00128311        -92.0205  
                      0.00186646         90.6597       0.00184208        -12.3366       0.00128311        -92.0192         0.998049       -0.440279  
                        0.998047       -0.440154       0.00128311        -92.0193       0.00184118        -12.2129       0.00186646          90.657  
                      0.00128311        -92.0204         0.998048       -0.440229       0.00186643         90.6578       0.00184228        -12.3479  
0.199                 0.00184182        -12.8756       0.00196438         90.6965         0.998035        -0.46317          0.00135        -92.1214  
                      0.00196432         90.6982       0.00184314        -13.0109          0.00135        -92.1201         0.998036       -0.463242  
                        0.998034       -0.463109          0.00135        -92.1202       0.00184212         -12.881       0.00196432         90.6955  
                         0.00135        -92.1214         0.998036        -0.46319       0.00196429         90.6963       0.00184335        -13.0226  
0.2089                0.00184277        -13.5471       0.00206229         90.7354         0.998022       -0.486115       0.00141686         -92.222  
                      0.00206223          90.737        0.0018442        -13.6891       0.00141686        -92.2206         0.998023       -0.486195  
                        0.998021       -0.486053       0.00141686        -92.2207       0.00184307        -13.5528       0.00206223         90.7344  
                      0.00141686        -92.2219         0.998023       -0.486141        0.0020622         90.7351       0.00184443        -13.7011  
0.2188                0.00184372        -14.2225       0.00216024         90.7745         0.998008       -0.509049        0.0014837        -92.3222  
                      0.00216018         90.7761       0.00184528        -14.3712        0.0014837        -92.3208         0.998009       -0.509136  
                        0.998007       -0.508985        0.0014837        -92.3208       0.00184403        -14.2285       0.00216018         90.7735  
                       0.0014837        -92.3222         0.998009       -0.509081       0.00216015         90.7742       0.00184551        -14.3834  
0.2287                0.00184469        -14.9018       0.00225824         90.8138         0.997994        -0.53197       0.00155052        -92.4222  
                      0.00225818         90.8154       0.00184637        -15.0573       0.00155051        -92.4207         0.997995       -0.532065  
                        0.997993       -0.531905       0.00155051        -92.4207       0.00184498        -14.9081       0.00225818         90.8128  
                      0.00155052        -92.4221         0.997995        -0.53201       0.00225815         90.8135       0.00184661        -15.0695  
0.2386                0.00184565         -15.585       0.00235628         90.8533         0.997979       -0.554878        0.0016173        -92.5219  
                      0.00235623         90.8548       0.00184747        -15.7473        0.0016173        -92.5203          0.99798       -0.554983  
                        0.997979       -0.554812        0.0016173        -92.5203       0.00184594        -15.5915       0.00235622         90.8523  
                       0.0016173        -92.5218          0.99798       -0.554927       0.00235619          90.853       0.00184771        -15.7595  
0.2485                0.00184662        -16.2723       0.00245438         90.8929         0.997964       -0.577774       0.00168405        -92.6213  
                      0.00245432         90.8943       0.00184857        -16.4414       0.00168405        -92.6197         0.997965       -0.577888  
                        0.997963       -0.577708       0.00168405        -92.6197        0.0018469        -16.2789       0.00245432         90.8919  
                      0.00168405        -92.6213         0.997965       -0.577833       0.00245429         90.8925       0.00184883        -16.4535  
0.2584                 0.0018476        -16.9636       0.00255253         90.9325         0.997948       -0.600658       0.00175077        -92.7205  
                      0.00255247         90.9339       0.00184969        -17.1396       0.00175077        -92.7188         0.997949       -0.600782  
                        0.997948       -0.600592       0.00175077        -92.7189       0.00184787        -16.9704       0.00255247         90.9315  
                      0.00175077        -92.7205         0.997949       -0.600728       0.00255244         90.9321       0.00184995        -17.1515  
0.2683                0.00184858         -17.659       0.00265073         90.9721         0.997932       -0.623529       0.00181746        -92.8196  
                      0.00265068         90.9734       0.00185081        -17.8418       0.00181746        -92.8178         0.997933       -0.623663  
                        0.997931       -0.623463       0.00181746        -92.8179       0.00184883        -17.6659       0.00265067         90.9712  
                      0.00181746        -92.8196         0.997933        -0.62361       0.00265064         90.9718       0.00185108        -17.8535  
0.2782                0.00184957        -18.3586       0.00274899         91.0118         0.997915       -0.646387       0.00188412        -92.9185  
                      0.00274894          91.013       0.00185194        -18.5481       0.00188412        -92.9167         0.997916       -0.646532  
                        0.997915       -0.646322       0.00188412        -92.9167        0.0018498        -18.3655       0.00274894         91.0108  
                      0.00188412        -92.9184         0.997916        -0.64648       0.00274891         91.0114       0.00185222        -18.5595  
0.2881                0.00185056        -19.0623       0.00284732         91.0514         0.997898       -0.669232       0.00195074        -93.0172  
                      0.00284726         91.0526       0.00185308        -19.2586       0.00195074        -93.0153         0.997899       -0.669389  
                        0.997897       -0.669169       0.00195074        -93.0154       0.00185078        -19.0693       0.00284726         91.0504  
                      0.00195074        -93.0172         0.997899       -0.669338       0.00284723          91.051       0.00185336        -19.2696  
0.298                 0.00185155        -19.7702        0.0029457          91.091          0.99788       -0.692065       0.00201733        -93.1158  
                      0.00294565         91.0921       0.00185423        -19.9733       0.00201733        -93.1138         0.997881       -0.692233  
                         0.99788       -0.692003       0.00201733        -93.1139       0.00185175        -19.7773       0.00294565           91.09  
                      0.00201733        -93.1157         0.997881       -0.692184       0.00294562         91.0905       0.00185452        -19.9838  
0.3079                0.00185256        -20.4824       0.00304415         91.1304         0.997862       -0.714884       0.00208388        -93.2142  
                       0.0030441         91.1315       0.00185538        -20.6921       0.00208388        -93.2122         0.997863       -0.715064  
                        0.997861       -0.714825       0.00208388        -93.2123       0.00185273        -20.4894        0.0030441         91.1295  
                      0.00208388        -93.2142         0.997863       -0.715017       0.00304407           91.13       0.00185569        -20.7021  
0.3178                0.00185356        -21.1989       0.00314267         91.1698         0.997843       -0.737691       0.00215039        -93.3125  
                      0.00314262         91.1708       0.00185655        -21.4152       0.00215039        -93.3105         0.997844       -0.737883  
                        0.997843       -0.737633       0.00215039        -93.3105       0.00185372        -21.2059       0.00314262         91.1689  
                      0.00215039        -93.3125         0.997844       -0.737838       0.00314259         91.1693       0.00185686        -21.4246  
0.3277                0.00185458        -21.9196       0.00324125         91.2091         0.997824       -0.760485       0.00221687        -93.4107  
                      0.00324121           91.21       0.00185773        -22.1424       0.00221686        -93.4086         0.997825       -0.760688  
                        0.997823        -0.76043       0.00221686        -93.4086       0.00185471        -21.9266       0.00324121         91.2082  
                      0.00221687        -93.4107         0.997825       -0.760646       0.00324118         91.2086       0.00185805        -22.1512  
0.3376                 0.0018556        -22.6447       0.00333991         91.2483         0.997804       -0.783266        0.0022833        -93.5088  
                      0.00333987         91.2491       0.00185892        -22.8739        0.0022833        -93.5066         0.997805       -0.783481  
                        0.997804       -0.783213        0.0022833        -93.5066       0.00185571        -22.6516       0.00333987         91.2473  
                       0.0022833        -93.5087         0.997805       -0.783442       0.00333984         91.2477       0.00185925        -22.8821  
0.3475                0.00185664        -23.3742       0.00343864         91.2873         0.997784       -0.806033       0.00234969        -93.6067  
                      0.00343861         91.2881       0.00186013        -23.6097       0.00234969        -93.6045         0.997785       -0.806261  
                        0.997784       -0.805984       0.00234969        -93.6045       0.00185672         -23.381        0.0034386         91.2864  
                       0.0023497        -93.6067         0.997785       -0.806224       0.00343858         91.2867       0.00186047        -23.6172  
0.3574                0.00185768         -24.108       0.00353745         91.3262         0.997763       -0.828788       0.00241605        -93.7046  
                      0.00353742         91.3269       0.00186135        -24.3497       0.00241604        -93.7022         0.997764       -0.829028  
                        0.997763       -0.828741       0.00241604        -93.7023       0.00185773        -24.1147       0.00353741         91.3252  
                      0.00241605        -93.7045         0.997765       -0.828993       0.00353739         91.3256        0.0018617        -24.3565  
0.3673                0.00185873        -24.8463       0.00363634         91.3649         0.997742        -0.85153       0.00248235        -93.8023  
                      0.00363631         91.3655       0.00186259         -25.094       0.00248235        -93.7999         0.997743       -0.851781  
                        0.997742       -0.851486       0.00248235        -93.7999       0.00185876        -24.8528        0.0036363         91.3639  
                      0.00248235        -93.8023         0.997743       -0.851749       0.00363628         91.3642       0.00186295           -25.1  
0.3772                 0.0018598        -25.5889        0.0037353         91.4034         0.997721       -0.874258       0.00254862        -93.8999  
                      0.00373528          91.404       0.00186385        -25.8426       0.00254861        -93.8975         0.997722       -0.874522  
                        0.997721       -0.874217       0.00254861        -93.8975       0.00185981        -25.5954       0.00373527         91.4025  
                      0.00254862        -93.8999         0.997722       -0.874493       0.00373525         91.4027       0.00186422        -25.8479  
0.3871                0.00186089         -26.336       0.00383435         91.4418         0.997699       -0.896974       0.00261484        -93.9975  
                      0.00383433         91.4423       0.00186513        -26.5955       0.00261483        -93.9949           0.9977       -0.897249  
                        0.997699       -0.896936       0.00261483         -93.995       0.00186086        -26.3423       0.00383432         91.4408  
                      0.00261484        -93.9974           0.9977       -0.897222       0.00383431         91.4411       0.00186551           -26.6  
0.397                 0.00186199        -27.0875       0.00393349           91.48         0.997676       -0.919676       0.00268101        -94.0949  
                      0.00393346         91.4804       0.00186643        -27.3527         0.002681        -94.0923         0.997677       -0.919963  
                        0.997676       -0.919641         0.002681        -94.0923       0.00186194        -27.0937       0.00393346          91.479  
                      0.00268101        -94.0949         0.997677       -0.919939       0.00393344         91.4792       0.00186682        -27.3564  
0.4069                0.00186311        -27.8435       0.00403271          91.518         0.997653       -0.942364       0.00274713        -94.1922  
                      0.00403268         91.5184       0.00186775        -28.1142       0.00274713        -94.1896         0.997654       -0.942663  
                        0.997653       -0.942333       0.00274713        -94.1896       0.00186304        -27.8496       0.00403268          91.517  
                      0.00274713        -94.1922         0.997654       -0.942642       0.00403267         91.5172       0.00186815         -28.117  
0.4168                0.00186426        -28.6039       0.00413201         91.5557          0.99763        -0.96504       0.00281321        -94.2895  
                      0.00413199         91.5561        0.0018691        -28.8801        0.0028132        -94.2868         0.997631        -0.96535  
                         0.99763       -0.965012        0.0028132        -94.2868       0.00186415        -28.6099       0.00413199         91.5547  
                      0.00281321        -94.2894         0.997631       -0.965331       0.00413198         91.5549       0.00186952         -28.882  
0.4267                0.00186543        -29.3689       0.00423141         91.5933         0.997606       -0.987702       0.00287924        -94.3866  
                      0.00423139         91.5936       0.00187049        -29.6502       0.00287923        -94.3839         0.997607       -0.988023  
                        0.997606       -0.987678       0.00287923        -94.3839       0.00186529        -29.3747       0.00423139         91.5923  
                      0.00287924        -94.3866         0.997607       -0.988007       0.00423138         91.5924       0.00187091        -29.6512  
0.4366                0.00186662        -30.1382        0.0043309         91.6307         0.997582        -1.01035       0.00294521        -94.4837  
                      0.00433089         91.6309        0.0018719        -30.4246        0.0029452        -94.4809         0.997582        -1.01068  
                        0.997582        -1.01033        0.0029452        -94.4809       0.00186646         -30.144       0.00433088         91.6296  
                      0.00294521        -94.4837         0.997583        -1.01067       0.00433087         91.6298       0.00187234        -30.4248  
0.4465                0.00186785        -30.9121       0.00443048         91.6678         0.997557        -1.03299       0.00301113        -94.5806  
                      0.00443047          91.668       0.00187335        -31.2033       0.00301113        -94.5778         0.997558        -1.03333  
                        0.997557        -1.03297       0.00301112        -94.5778       0.00186766        -30.9178       0.00443047         91.6668  
                      0.00301113        -94.5806         0.997558        -1.03332       0.00443046         91.6668        0.0018738        -31.2026  
0.4564                 0.0018691        -31.6904       0.00453016         91.7047         0.997532        -1.05561         0.003077        -94.6775  
                      0.00453015         91.7049       0.00187484        -31.9863         0.003077        -94.6746         0.997533        -1.05596  
                        0.997532        -1.05559       0.00307699        -94.6746       0.00186889         -31.696       0.00453015         91.7036  
                        0.003077        -94.6775         0.997533        -1.05595       0.00453014         91.7037        0.0018753        -31.9847  
0.4663                 0.0018704        -32.4732       0.00462994         91.7414         0.997507        -1.07822       0.00314282        -94.7743  
                      0.00462993         91.7415       0.00187636        -32.7736       0.00314281        -94.7713         0.997507        -1.07858  
                        0.997507        -1.07821       0.00314281        -94.7713       0.00187016        -32.4787       0.00462993         91.7403  
                      0.00314282        -94.7743         0.997507        -1.07857       0.00462992         91.7403       0.00187685        -32.7711  
0.4762                0.00187173        -33.2605       0.00472982         91.7778         0.997481        -1.10081       0.00320858         -94.871  
                      0.00472981         91.7779       0.00187794        -33.5652       0.00320857        -94.8679         0.997481        -1.10119  
                        0.997481         -1.1008       0.00320857        -94.8679       0.00187147         -33.266        0.0047298         91.7767  
                      0.00320858         -94.871         0.997481        -1.10118        0.0047298         91.7767       0.00187843        -33.5617  
0.4861                 0.0018731        -34.0522       0.00482979          91.814         0.997454        -1.12339       0.00327428        -94.9675  
                      0.00482979          91.814       0.00187955         -34.361       0.00327428        -94.9644         0.997455        -1.12378  
                        0.997454        -1.12339       0.00327427        -94.9644       0.00187282        -34.0576       0.00482978         91.8129  
                      0.00327429        -94.9675         0.997455        -1.12377       0.00482978         91.8129       0.00188006        -34.3566  
0.496                 0.00187452        -34.8484       0.00492987         91.8499         0.997428        -1.14596       0.00333993         -95.064  
                      0.00492987           91.85       0.00188122         -35.161       0.00333992        -95.0609         0.997428        -1.14635  
                        0.997428        -1.14596       0.00333992        -95.0609       0.00187421        -34.8538       0.00492987         91.8488  
                      0.00333993         -95.064         0.997428        -1.14635       0.00492987         91.8488       0.00188175        -35.1558  
0.505900032           0.00187598         -35.649       0.00503006         91.8856         0.997401        -1.16851       0.00340552        -95.1604  
                      0.00503006         91.8856       0.00188295        -35.9653       0.00340551        -95.1572         0.997401        -1.16892  
                        0.997401        -1.16852       0.00340551        -95.1572       0.00187565        -35.6544       0.00503005         91.8845  
                      0.00340552        -95.1604         0.997401        -1.16892       0.00503005         91.8845       0.00188349        -35.9591  
0.5158                 0.0018775         -36.454       0.00513035         91.9211         0.997373        -1.19105       0.00347105        -95.2567  
                      0.00513035          91.921       0.00188473        -36.7738       0.00347104        -95.2534         0.997373        -1.19147  
                        0.997373        -1.19106       0.00347104        -95.2534       0.00187715        -36.4594       0.00513035         91.9199  
                      0.00347105        -95.2568         0.997373        -1.19147       0.00513035         91.9199       0.00188528        -36.7666  
0.525699968           0.00187908        -37.2634       0.00523075         91.9563         0.997345        -1.21358       0.00353652         -95.353  
                      0.00523075         91.9562       0.00188657        -37.5864       0.00353651        -95.3496         0.997345          -1.214  
                        0.997345        -1.21359       0.00353651        -95.3496        0.0018787        -37.2688       0.00523075         91.9551  
                      0.00353652         -95.353         0.997345        -1.21401       0.00523075          91.955       0.00188714        -37.5783  
0.5356                0.00188071        -38.0772       0.00533126         91.9912         0.997316        -1.23609       0.00360192        -95.4491  
                      0.00533126         91.9911       0.00188848        -38.4031       0.00360191        -95.4456         0.997316        -1.23653  
                        0.997317         -1.2361       0.00360191        -95.4456       0.00188032        -38.0826       0.00533126           91.99  
                      0.00360193        -95.4491         0.997316        -1.23653       0.00533126         91.9899       0.00188906        -38.3941  
0.545499968           0.00188241        -38.8953       0.00543187         92.0258         0.997288        -1.25859       0.00366727        -95.5451  
                      0.00543188         92.0257       0.00189046         -39.224       0.00366726        -95.5416         0.997288        -1.25904  
                        0.997288        -1.25861       0.00366725        -95.5416       0.00188199        -38.9008       0.00543188         92.0246  
                      0.00366727        -95.5451         0.997287        -1.25904       0.00543188         92.0246       0.00189105        -39.2141  
0.5554                0.00188418        -39.7177       0.00553261         92.0602         0.997258        -1.28108       0.00373255         -95.641  
                      0.00553261         92.0601       0.00189251        -40.0489       0.00373254        -95.6374         0.997258        -1.28153  
                        0.997258        -1.28109       0.00373253        -95.6374       0.00188374        -39.7233       0.00553261          92.059  
                      0.00373255         -95.641         0.997258        -1.28154       0.00553261         92.0589       0.00189312        -40.0381  
0.565299968           0.00188602        -40.5443       0.00563345         92.0943         0.997229        -1.30355       0.00379776        -95.7368  
                      0.00563346         92.0942       0.00189463        -40.8779       0.00379775        -95.7332         0.997229        -1.30401  
                        0.997229        -1.30357       0.00379775        -95.7332       0.00188556        -40.5501       0.00563346         92.0931  
                      0.00379777        -95.7368         0.997228        -1.30402       0.00563346          92.093       0.00189526        -40.8661  
0.5752                0.00188793        -41.3752       0.00573441         92.1282         0.997199        -1.32601       0.00386291        -95.8325  
                      0.00573442          92.128       0.00189684        -41.7108        0.0038629        -95.8288         0.997199        -1.32648  
                        0.997199        -1.32603        0.0038629        -95.8288       0.00188746        -41.3812       0.00573442         92.1269  
                      0.00386291        -95.8325         0.997198        -1.32649       0.00573443         92.1268       0.00189748        -41.6981  
0.585099968           0.00188992        -42.2103       0.00583549         92.1617         0.997168        -1.34845         0.003928        -95.9281  