! TOUCHSTONE file generated by CST MICROWAVE STUDIO
! Date and time: Thu Oct 23 10:02:37 2014
! Project name: Untitled_0.cst
# GHZ S MA R 50
0.1                   0.00185952         -9.8473       0.00130411          90.363         0.998137         -0.2378      0.000615832        -91.3493  
                      0.00130411          90.363       0.00185866        -9.71425      0.000615832        -91.3493         0.998137        -0.23757  
                        0.998138       -0.237795      0.000615832        -91.3494       0.00185947        -9.85112        0.0013041         90.3625  
                     0.000615831        -91.3493         0.998137        -0.23757        0.0013041         90.3625       0.00185869        -9.71448  
0.1099                0.00186578          -10.81       0.00143317         90.3978         0.998131       -0.261298      0.000676554        -91.4848  
                      0.00143317         90.3979       0.00186476        -10.6632      0.000676552        -91.4848          0.99813       -0.261046  
                        0.998131       -0.261296      0.000676553        -91.4849       0.00186573        -10.8128       0.00143317         90.3972  
                     0.000676553        -91.4846          0.99813       -0.261046       0.00143316         90.3972       0.00186481        -10.6637  
0.1198                0.00187256          -11.77       0.00156224         90.4337         0.998123       -0.284784      0.000737253         -91.618  
                      0.00156225         90.4339       0.00187137        -11.6097       0.00073725        -91.6178         0.998123       -0.284511  
                        0.998123       -0.284785      0.000737253         -91.618       0.00187251        -11.7717       0.00156224          90.433  
                     0.000737253        -91.6176         0.998123        -0.28451       0.00156224         90.4331       0.00187143        -11.6104  
0.129700008           0.00187987        -12.7269       0.00169134         90.4705         0.998115       -0.308258       0.00079793        -91.7492  
                      0.00169134         90.4708       0.00187849        -12.5535      0.000797925         -91.749         0.998115       -0.307963  
                        0.998115       -0.308262      0.000797929        -91.7493       0.00187981        -12.7277       0.00169134         90.4697  
                      0.00079793        -91.7487         0.998115       -0.307961       0.00169134         90.4698       0.00187857        -12.5544  
0.1396                0.00188769        -13.6804       0.00182046          90.508         0.998107        -0.33172      0.000858583         -91.879  
                      0.00182046         90.5083       0.00188611        -13.4942      0.000858576        -91.8786         0.998107       -0.331403  
                        0.998107       -0.331726      0.000858582         -91.879       0.00188763        -13.6803       0.00182046         90.5071  
                     0.000858583        -91.8783         0.998107         -0.3314       0.00182045         90.5073       0.00188621        -13.4952  
0.1495                0.00189601        -14.6302        0.0019496         90.5461         0.998098       -0.355169      0.000919212        -92.0074  
                      0.00194961         90.5464       0.00189423        -14.4315      0.000919204         -92.007         0.998098        -0.35483  
                        0.998098       -0.355177       0.00091921        -92.0074       0.00189596        -14.6292       0.00194961         90.5451  
                     0.000919212        -92.0067         0.998098       -0.354826        0.0019496         90.5453       0.00189434        -14.4327  
0.1594                0.00190484        -15.5759       0.00207878         90.5846         0.998088       -0.378605      0.000979815        -92.1347  
                      0.00207879          90.585       0.00190284         -15.365      0.000979806        -92.1343         0.998088       -0.378243  
                        0.998088       -0.378615      0.000979813        -92.1348       0.00190479         -15.574       0.00207879         90.5836  
                     0.000979817         -92.134         0.998088       -0.378239       0.00207878         90.5837       0.00190297        -15.3663  
0.1693                0.00191416        -16.5172       0.00220799         90.6235         0.998078       -0.402027       0.00104039        -92.2612  
                        0.002208         90.6238       0.00191194        -16.2946       0.00104038        -92.2607         0.998078       -0.401643  
                        0.998078       -0.402039       0.00104039        -92.2612       0.00191412        -16.5146         0.002208         90.6224  
                       0.0010404        -92.2604         0.998078       -0.401638       0.00220799         90.6226       0.00191207         -16.296  
0.1792                0.00192396        -17.4539       0.00233724         90.6626         0.998068       -0.425436       0.00110095        -92.3868  
                      0.00233725          90.663       0.00192151        -17.2198       0.00110093        -92.3864         0.998068       -0.425029  
                        0.998068       -0.425449       0.00110094        -92.3869       0.00192393        -17.4505       0.00233725         90.6615  
                      0.00110095         -92.386         0.998068       -0.425024       0.00233723         90.6617       0.00192165        -17.2213  
0.1891                0.00193424        -18.3855       0.00246653          90.702         0.998057        -0.44883       0.00116147        -92.5118  
                      0.00246654         90.7024       0.00193154        -18.1404       0.00116146        -92.5113         0.998057       -0.448401  
                        0.998057       -0.448845       0.00116147        -92.5118       0.00193422        -18.3814       0.00246654         90.7008  
                      0.00116147         -92.511         0.998057       -0.448396       0.00246652          90.701        0.0019317        -18.1419  
0.199                   0.001945        -19.3119       0.00259587         90.7416         0.998046       -0.472211       0.00122197         -92.636  
                      0.00259588          90.742       0.00194204        -19.0561       0.00122196        -92.6356         0.998045       -0.471759  
                        0.998046       -0.472227       0.00122197        -92.6361       0.00194499        -19.3072       0.00259587         90.7404  
                      0.00122197        -92.6353         0.998045       -0.471753       0.00259586         90.7406       0.00194221        -19.0577  
0.2089                0.00195622        -20.2328       0.00272525         90.7813         0.998034       -0.495577       0.00128244        -92.7598  
                      0.00272527         90.7817       0.00195299        -19.9667       0.00128243        -92.7593         0.998034       -0.495102  
                        0.998034       -0.495595       0.00128244        -92.7598       0.00195622        -20.2275       0.00272526           90.78  
                      0.00128244         -92.759         0.998034       -0.495096       0.00272524         90.7802       0.00195317        -19.9683  
0.2188                0.00196789        -21.1479       0.00285469         90.8212         0.998022        -0.51893       0.00134288         -92.883  
                       0.0028547         90.8215       0.00196438         -20.872       0.00134287        -92.8825         0.998021       -0.518431  
                        0.998021       -0.518948       0.00134288         -92.883        0.0019679         -21.142       0.00285469         90.8198  
                      0.00134289        -92.8822         0.998021       -0.518425       0.00285468           90.82       0.00196457        -20.8735  
0.2287                0.00198001         -22.057       0.00298418         90.8611         0.998009       -0.542267        0.0014033        -93.0057  
                       0.0029842         90.8614       0.00197622        -21.7716       0.00140329        -93.0053         0.998009       -0.541746  
                        0.998009       -0.542286        0.0014033        -93.0058       0.00198003        -22.0505       0.00298419         90.8597  
                       0.0014033         -93.005         0.998009        -0.54174       0.00298418         90.8599       0.00197642        -21.7731  
0.2386                0.00199256        -22.9598       0.00311374          90.901         0.997996        -0.56559       0.00146368         -93.128  
                      0.00311376         90.9013       0.00198848        -22.6654       0.00146367        -93.1276         0.997996       -0.565045  
                        0.997996       -0.565609       0.00146368        -93.1281       0.00199261        -22.9529       0.00311374         90.8995  
                      0.00146369        -93.1273         0.997996       -0.565039       0.00311373         90.8997       0.00198869        -22.6668  
0.2485                0.00200555        -23.8562       0.00324336          90.941         0.997982       -0.588898       0.00152404        -93.2499  
                      0.00324337         90.9412       0.00200116        -23.5532       0.00152403        -93.2495         0.997982        -0.58833  
                        0.997982       -0.588918       0.00152404          -93.25       0.00200561        -23.8488       0.00324336         90.9394  
                      0.00152405        -93.2493         0.997982       -0.588324       0.00324335         90.9396       0.00200138        -23.5545  
0.2584                0.00201896         -24.746       0.00337304         90.9809         0.997968       -0.612192       0.00158437        -93.3715  
                      0.00337306         90.9811       0.00201426        -24.4347       0.00158436         -93.371         0.997968         -0.6116  
                        0.997968       -0.612212       0.00158437        -93.3715       0.00201904        -24.7382       0.00337304         90.9793  
                      0.00158438        -93.3708         0.997968       -0.611594       0.00337303         90.9795       0.00201449        -24.4359  
0.2683                0.00203279        -25.6289        0.0035028         91.0208         0.997954        -0.63547       0.00164467        -93.4926  
                      0.00350281          91.021       0.00202777        -25.3098       0.00164466        -93.4922         0.997954       -0.634856  
                        0.997954       -0.635491       0.00164467        -93.4927       0.00203288        -25.6207        0.0035028         91.0192  
                      0.00164468         -93.492         0.997954        -0.63485       0.00350279         91.0194         0.002028        -25.3109  
0.2782                0.00204702        -26.5049       0.00363263         91.0606         0.997939       -0.658734       0.00170494        -93.6135  
                      0.00363264         91.0608       0.00204167        -26.1783       0.00170493        -93.6131         0.997939       -0.658096  
                        0.997939       -0.658754       0.00170494        -93.6136       0.00204713        -26.4963       0.00363262          91.059  
                      0.00170495        -93.6129         0.997939        -0.65809       0.00363261         91.0592       0.00204191        -26.1793  
0.2881                0.00206165        -27.3737       0.00376253         91.1004         0.997924       -0.681983       0.00176518         -93.734  
                      0.00376255         91.1006       0.00205596        -27.0401       0.00176517        -93.7336         0.997924       -0.681322  
                        0.997924       -0.682003       0.00176518        -93.7341       0.00206178        -27.3648       0.00376253         91.0987  
                      0.00176519        -93.7334         0.997924       -0.681316       0.00376252         91.0989       0.00205621        -27.0409  
0.298                 0.00207667        -28.2353       0.00389252         91.1401         0.997909       -0.705217       0.00182539        -93.8542  
                      0.00389253         91.1402       0.00207063         -27.895       0.00182538        -93.8539         0.997909       -0.704532  
                        0.997909       -0.705237       0.00182538        -93.8543       0.00207682         -28.226       0.00389251         91.1383  
                       0.0018254        -93.8537         0.997909       -0.704527        0.0038925         91.1385       0.00207089        -27.8956  
0.3079                0.00209207        -29.0894       0.00402258         91.1796         0.997893       -0.728436       0.00188556        -93.9742  
                       0.0040226         91.1798       0.00208567        -28.7428       0.00188556        -93.9739         0.997893       -0.727728  
                        0.997893       -0.728457       0.00188556        -93.9743       0.00209224        -29.0798       0.00402258         91.1778  
                      0.00188557        -93.9737         0.997893       -0.727723       0.00402257          91.178       0.00208594        -28.7433  
0.3178                0.00210785         -29.936       0.00415274         91.2191         0.997877       -0.751641       0.00194571        -94.0939  
                      0.00415275         91.2192       0.00210109        -29.5836       0.00194571        -94.0936         0.997877        -0.75091  
                        0.997877       -0.751661       0.00194571         -94.094       0.00210804        -29.9262       0.00415273         91.2172  
                      0.00194572        -94.0934         0.997877       -0.750904       0.00415272         91.2174       0.00210136        -29.5838  
0.3277                0.00212399        -30.7751       0.00428298         91.2584         0.997861       -0.774831       0.00200583        -94.2133  
                        0.004283         91.2585       0.00211685        -30.4171       0.00200583        -94.2131         0.997861       -0.774076  
                        0.997861        -0.77485       0.00200583        -94.2135        0.0021242         -30.765       0.00428297         91.2565  
                      0.00200584        -94.2129         0.997861       -0.774071       0.00428296         91.2567       0.00211714        -30.4171  
0.3376                0.00214049        -31.6064       0.00441332         91.2975         0.997844       -0.798006       0.00206592        -94.3325  
                      0.00441333         91.2976       0.00213297        -31.2433       0.00206591        -94.3323         0.997844       -0.797228  
                        0.997844       -0.798025       0.00206592        -94.3327       0.00214072        -31.5961        0.0044133         91.2956  
                      0.00206593        -94.3322         0.997844       -0.797223        0.0044133         91.2958       0.00213326        -31.2431  
0.3475                0.00215733        -32.4299       0.00454374         91.3365         0.997827       -0.821166       0.00212597        -94.4515  
                      0.00454376         91.3366       0.00214943        -32.0621       0.00212597        -94.4514         0.997827       -0.820365  
                        0.997827       -0.821185       0.00212597        -94.4517       0.00215758        -32.4194       0.00454373         91.3346  
                      0.00212598        -94.4512         0.997827        -0.82036       0.00454373         91.3347       0.00214973        -32.0616  
0.3574                0.00217452        -33.2457       0.00467427         91.3753         0.997809       -0.844312         0.002186        -94.5703  
                      0.00467428         91.3754       0.00216623        -32.8734         0.002186        -94.5702          0.99781       -0.843488  
                        0.997809        -0.84433         0.002186        -94.5705       0.00217479        -33.2349       0.00467425         91.3734  
                      0.00218601          -94.57          0.99781       -0.843483       0.00467425         91.3735       0.00216654        -32.8726  
0.3673                0.00219204        -34.0535        0.0048049          91.414         0.997792       -0.867444       0.00224599        -94.6889  
                      0.00480491          91.414       0.00218335        -33.6772       0.00224599        -94.6888         0.997792       -0.866596  
                        0.997792       -0.867461       0.00224599        -94.6891       0.00219233        -34.0426       0.00480488         91.4119  
                        0.002246        -94.6886         0.997792       -0.866592       0.00480487         91.4121       0.00218367        -33.6762  
0.3772                0.00220989        -34.8535       0.00493562         91.4524         0.997774       -0.890561       0.00230595        -94.8073  
                      0.00493564         91.4525       0.00220079        -34.4734       0.00230595        -94.8072         0.997774       -0.889689  
                        0.997773       -0.890578       0.00230596        -94.8075        0.0022102        -34.8423        0.0049356         91.4503  
                      0.00230596         -94.807         0.997774       -0.889686        0.0049356         91.4504       0.00220111        -34.4721  
0.3871                0.00222805        -35.6455       0.00506646         91.4906         0.997755       -0.913663       0.00236589        -94.9255  
                      0.00506647         91.4907       0.00221854         -35.262       0.00236589        -94.9255         0.997756       -0.912769  
                        0.997755        -0.91368       0.00236589        -94.9258       0.00222838        -35.6341       0.00506643         91.4885  
                      0.00236589        -94.9253         0.997756       -0.912765       0.00506643         91.4886       0.00221887        -35.2603  
0.397                 0.00224652        -36.4295        0.0051974         91.5287         0.997737       -0.936752       0.00242578        -95.0436  
                      0.00519741         91.5287        0.0022366        -36.0429       0.00242579        -95.0436         0.997737       -0.935834  
                        0.997736       -0.936767       0.00242579        -95.0438       0.00224687         -36.418       0.00519737         91.5265  
                      0.00242579        -95.0434         0.997737       -0.935831       0.00519737         91.5266       0.00223694         -36.041  
0.4069                 0.0022653        -37.2056       0.00532844         91.5664         0.997718       -0.959826       0.00248565        -95.1615  
                      0.00532845         91.5665       0.00225495        -36.8162       0.00248565        -95.1616         0.997718       -0.958885  
                        0.997717       -0.959841       0.00248566        -95.1618       0.00226567        -37.1939       0.00532842         91.5643  
                      0.00248566        -95.1613         0.997718       -0.958882       0.00532842         91.5643        0.0022553        -36.8139  
0.4168                0.00228437        -37.9737        0.0054596          91.604         0.997698       -0.982886       0.00254549        -95.2792  
                      0.00545961          91.604       0.00227358        -37.5818       0.00254549        -95.2794         0.997699       -0.981922  
                        0.997698         -0.9829       0.00254549        -95.2795       0.00228476        -37.9618       0.00545958         91.6018  
                       0.0025455        -95.2791         0.997699        -0.98192       0.00545957         91.6018       0.00227394        -37.5792  
0.4267                0.00230372        -38.7338       0.00559088         91.6413         0.997679        -1.00593       0.00260529        -95.3969  
                      0.00559088         91.6413       0.00229251        -38.3398        0.0026053        -95.3971         0.997679        -1.00495  
                        0.997679        -1.00595        0.0026053        -95.3972       0.00230413        -38.7218       0.00559085         91.6391  
                       0.0026053        -95.3968         0.997679        -1.00494       0.00559085         91.6391       0.00229287        -38.3368  
0.4366                0.00232336         -39.486       0.00572227         91.6784         0.997659        -1.02896       0.00266507        -95.5144  
                      0.00572227         91.6784        0.0023117          -39.09       0.00266507        -95.5146          0.99766        -1.02796  
                        0.997659        -1.02898       0.00266507        -95.5147       0.00232379        -39.4738       0.00572224         91.6761  
                      0.00266507        -95.5143          0.99766        -1.02795       0.00572223         91.6762       0.00231208        -39.0868  
0.4465                0.00234326        -40.2303       0.00585377         91.7153         0.997639        -1.05198        0.0027248        -95.6318  
                      0.00585378         91.7152       0.00233116        -39.8326       0.00272481         -95.632          0.99764        -1.05095  
                        0.997639          -1.052       0.00272481        -95.6321       0.00234371        -40.2179       0.00585374         91.7129  
                      0.00272481        -95.6318          0.99764        -1.05095       0.00585374         91.7129       0.00233155         -39.829  
0.4564                0.00236344        -40.9666        0.0059854         91.7518         0.997619        -1.07499       0.00278451        -95.7491  
                       0.0059854         91.7518       0.00235089        -40.5676       0.00278452        -95.7494         0.997619        -1.07393  
                        0.997618          -1.075       0.00278452        -95.7495       0.00236391        -40.9541       0.00598536         91.7495  
                      0.00278452        -95.7491         0.997619        -1.07393       0.00598536         91.7495       0.00235128        -40.5637  
0.4663                0.00238387        -41.6952       0.00611714         91.7882         0.997598        -1.09798       0.00284419        -95.8663  
                      0.00611715         91.7881       0.00237086         -41.295       0.00284419        -95.8666         0.997599         -1.0969  
                        0.997598        -1.09799       0.00284419        -95.8667       0.00238436        -41.6825       0.00611711         91.7857  
                      0.00284419        -95.8663         0.997599         -1.0969       0.00611711         91.7857       0.00237127        -41.2907  
0.4762                0.00240455        -42.4159       0.00624901         91.8242         0.997577        -1.12096       0.00290383        -95.9834  
                      0.00624901         91.8242       0.00239109        -42.0148       0.00290383        -95.9838         0.997578        -1.11986  
                        0.997577        -1.12097       0.00290383        -95.9838       0.00240506         -42.403       0.00624898         91.8217  
                      0.00290383        -95.9834         0.997578        -1.11986       0.00624897         91.8218        0.0023915        -42.0101  
0.4861                0.00242547        -43.1288       0.00638101           91.86         0.997556        -1.14392       0.00296344        -96.1005  
                      0.00638101           91.86       0.00241155        -42.7271       0.00296344        -96.1009         0.997557         -1.1428  
                        0.997556        -1.14393       0.00296344        -96.1009         0.002426        -43.1158       0.00638097         91.8575  
                      0.00296344        -96.1005         0.997557         -1.1428       0.00638097         91.8575       0.00241198         -42.722  
0.496                 0.00244664         -43.834       0.00651313         91.8955         0.997535        -1.16687       0.00302301        -96.2175  
                      0.00651313         91.8955       0.00243225        -43.4319       0.00302301        -96.2179         0.997535        -1.16573  
                        0.997534        -1.16688       0.00302301        -96.2179       0.00244718        -43.8209       0.00651309          91.893  
                      0.00302301        -96.2175         0.997535        -1.16573       0.00651309          91.893       0.00243268        -43.4265  
0.505900032           0.00246803        -44.5316       0.00664538         91.9307         0.997513        -1.18981       0.00308255        -96.3344  
                      0.00664537         91.9307       0.00245317        -44.1292       0.00308255        -96.3348         0.997514        -1.18864  
                        0.997513        -1.18982       0.00308255        -96.3348       0.00246859        -44.5183       0.00664533         91.9282  
                      0.00308255        -96.3344         0.997514        -1.18864       0.00664533         91.9281       0.00245362        -44.1234  
0.5158                0.00248965        -45.2216       0.00677775         91.9657         0.997491        -1.21274       0.00314206        -96.4512  
                      0.00677775         91.9657       0.00247432        -44.8192       0.00314206        -96.4517         0.997492        -1.21155  
                        0.997491        -1.21275       0.00314206        -96.4517       0.00249023        -45.2081       0.00677771         91.9631  
                      0.00314205        -96.4513         0.997492        -1.21154       0.00677771         91.9631       0.00247478         -44.813  
0.525699968           0.00251149         -45.904       0.00691026         92.0004         0.997469        -1.23565       0.00320153        -96.5681  
                      0.00691026         92.0004       0.00249568        -45.5018       0.00320153        -96.5685          0.99747        -1.23443  
                        0.997469        -1.23566       0.00320153        -96.5685       0.00251209        -45.8904       0.00691021         91.9977  
                      0.00320152        -96.5681          0.99747        -1.23443       0.00691021         91.9977       0.00249615        -45.4953  
0.5356                0.00253354         -46.579        0.0070429         92.0348         0.997446        -1.25855       0.00326096        -96.6848  
                      0.00704289         92.0348       0.00251724        -46.1772       0.00326097        -96.6853         0.997447        -1.25731  
                        0.997446        -1.25856       0.00326097        -96.6853       0.00253415        -46.5652       0.00704285         92.0321  
                      0.00326096        -96.6849         0.997447        -1.25731       0.00704285          92.032       0.00251773        -46.1703  
0.545499968           0.00255579        -47.2467       0.00717567         92.0689         0.997424        -1.28144       0.00332036        -96.8016  
                      0.00717567         92.0689       0.00253902        -46.8454       0.00332037        -96.8021         0.997425        -1.28018  
                        0.997424        -1.28144       0.00332037         -96.802       0.00255642        -47.2326       0.00717562         92.0661  
                      0.00332036        -96.8016         0.997425        -1.28018       0.00717562         92.0661       0.00253951        -46.8381  
0.5554                0.00257825         -47.907       0.00730858         92.1027         0.997401        -1.30431       0.00337973        -96.9183  
                      0.00730857         92.1027       0.00256098        -47.5065       0.00337973        -96.9188         0.997402        -1.30303  
                        0.997401        -1.30432       0.00337973        -96.9188       0.00257889        -47.8928       0.00730853         92.0999  
                      0.00337972        -96.9183         0.997402        -1.30303       0.00730853         92.0999       0.00256149        -47.4987  
0.565299968           0.00260089        -48.5601       0.00744162         92.1363         0.997378        -1.32717       0.00343905         -97.035  
                      0.00744162         92.1363       0.00258314        -48.1605       0.00343906        -97.0355         0.997379        -1.32587  
                        0.997378        -1.32718       0.00343906        -97.0355       0.00260156        -48.5457       0.00744157         92.1334  
                      0.00343905         -97.035         0.997379        -1.32587       0.00744157         92.1334       0.00258366        -48.1523  
0.5752                0.00262373        -49.2061        0.0075748         92.1695         0.997354        -1.35002       0.00349834        -97.1516  
                       0.0075748         92.1695       0.00260549        -48.8075       0.00349835        -97.1522         0.997355        -1.34869  
                        0.997354        -1.35003       0.00349835        -97.1521       0.00262441        -49.1914       0.00757475         92.1666  
                      0.00349834        -97.1517         0.997355        -1.34869       0.00757475         92.1666       0.00260601         -48.799  
0.585099968           0.00264675         -49.845       0.00770812         92.2025         0.997331        -1.37286        0.0035576        -97.2683  