! TOUCHSTONE file generated by CST MICROWAVE STUDIO
! Date and time: Fri Oct 24 10:10:08 2014
! Project name: Untitled_0.cst
# GHZ S MA R 50
0.1                   0.00555927         10.7303       0.00155015        -92.7634         0.994491       -0.205063       0.00359333        -91.1882  
                      0.00136579        -90.7726       0.00550751         10.9357       0.00342854        -90.5636         0.994459       -0.204239  
                        0.994507       -0.205815       0.00360671        -91.4667       0.00553787         10.9247       0.00153533        -92.7203  
                      0.00342285        -90.5986         0.994452       -0.205427       0.00136952        -91.3351       0.00550924         11.1579  
0.1099                0.00557833         11.8428       0.00113023        -94.0892         0.994496       -0.225072       0.00342044        -91.3877  
                      0.00113602        -91.0705       0.00551834         12.2086       0.00340072        -90.4899         0.994502       -0.226439  
                        0.994502       -0.225793       0.00338723        -91.6675       0.00556675         12.0101       0.00116152        -93.9811  
                      0.00340059        -90.5572         0.994432       -0.224835        0.0011382        -91.3025       0.00560073         11.7704  
0.1198                0.00560001         12.9518      0.000763699        -95.9404           0.9945       -0.245111       0.00328815        -91.4953  
                     0.000913528        -91.3546        0.0055358          13.624       0.00337998        -90.4169         0.994535       -0.246687  
                        0.994498       -0.245739       0.00322244        -91.7497       0.00559699         13.0792      0.000827571        -95.6926  
                       0.0033846        -90.5234         0.994408       -0.243258      0.000913891        -91.2332       0.00565076         12.8442  
0.129700008           0.00562447         14.0559      0.000438902        -99.6178         0.994504       -0.265174       0.00318789        -91.5376  
                     0.000697744        -91.6402       0.00558017         15.2079       0.00336575        -90.3457         0.994553       -0.266452  
                        0.994493        -0.26565       0.00309932        -91.7522       0.00562859         14.1328      0.000525833        -98.7083  
                      0.00337436         -90.497           0.9944       -0.259609      0.000696023        -91.1001       0.00568736         13.9214  
0.1396                0.00565188          15.153      0.000152621        -115.365         0.994507       -0.285259       0.00311335        -91.5345  
                     0.000488149        -91.9625       0.00567719         16.5799        0.0033575        -90.2774         0.994561       -0.286214  
                        0.994489       -0.285528       0.00300863        -91.7027       0.00566156         15.1713       0.00025276        -107.197  
                      0.00336937        -90.4782         0.994471       -0.275666      0.000484097        -90.8295       0.00572029         14.9779  
0.1495                0.00568239         16.2403      0.000142943         113.206         0.994509       -0.305363       0.00305973         -91.501  
                     0.000284277        -92.4466       0.00577532         17.2608       0.00335476        -90.2128         0.994564       -0.306059  
                        0.994486       -0.305377       0.00294368        -91.6214        0.0056959         16.1949     7.02798e-005         166.768  
                      0.00336921        -90.4666         0.994563       -0.297521      0.000277677        -90.1333       0.00575258         16.0154  
0.1594                0.00571611         17.3143      0.000382879         97.0276         0.994511       -0.325484       0.00302337        -91.4482  
                     8.5737e-005        -94.3355       0.00582499         17.7642       0.00335711        -90.1526         0.994565       -0.325985  
                        0.994484       -0.325206       0.00289946        -91.5226       0.00573162         17.2041      0.000263683         103.441  
                      0.00337348        -90.4621         0.994586       -0.320961     7.65834e-005        -85.7405       0.00578538         17.0362  
0.1693                0.00575304         18.3707      0.000612829         93.4942         0.994513        -0.34562        0.0030014        -91.3844  
                     0.000108106         89.9813       0.00585222         18.4362       0.00336416        -90.0973         0.994564       -0.345975  
                        0.994483       -0.345032       0.00287219        -91.4165       0.00576872         18.1989      0.000485471         96.3593  
                      0.00338184        -90.4644          0.99458       -0.343146      0.000120836         84.3161       0.00581922          18.042  
0.1792                0.00579304         19.4049      0.000829805         91.9397         0.994514       -0.365768       0.00299155        -91.3157  
                      0.00029722         88.6041       0.00587672         19.2421       0.00337558        -90.0474         0.994562       -0.366015  
                        0.994483       -0.364876       0.00285893        -91.3105       0.00580719         19.1794      0.000697925         93.7898  
                      0.00339395        -90.4732          0.99457       -0.364446      0.000313032         86.6724       0.00585434         19.0335  
0.1891                0.00583583          20.413       0.00103538         91.0622         0.994514       -0.385927       0.00299198        -91.2467  
                     0.000482142         88.2182       0.00590384          20.116       0.00339104         -90.003         0.994559       -0.386091  
                        0.994484        -0.38476       0.00285739        -91.2092       0.00584702         20.1458      0.000900835          92.452  
                      0.00340951        -90.4881          0.99456       -0.385285      0.000501314         87.2242       0.00589089         20.0111  
0.199                 0.00588094          21.392       0.00123116         90.5001         0.994514       -0.406095       0.00300123        -91.1803  
                     0.000663136         87.9979        0.0059344         21.0202       0.00341026        -89.9644         0.994556       -0.406194  
                        0.994486        -0.40471       0.00286573         -91.116       0.00588822          21.098       0.00109523         91.6278  
                      0.00342826        -90.5087         0.994551        -0.40588      0.000685858         87.4698       0.00592893          20.975  
0.2089                0.00592784         22.3411       0.00141854         90.1122         0.994514       -0.426272       0.00301807        -91.1189  
                     0.000840461           87.84       0.00596819         21.9355       0.00343298        -89.9318         0.994552       -0.426319  
                        0.994489       -0.424741       0.00288249        -91.0328       0.00593078         22.0362       0.00128216          91.069  
                      0.00344995        -90.5346         0.994543       -0.426335      0.000866908         87.6095       0.00596849         21.9254  
0.2188                0.00597599         23.2612       0.00159868         89.8315         0.994513       -0.446457        0.0030415        -91.0638  
                      0.00101435         87.7151       0.00600487         22.8516       0.00345894         -89.905         0.994548       -0.446459  
                        0.994492       -0.444861       0.00290646        -90.9607       0.00597468         22.9602       0.00146256         90.6662  
                      0.00347433        -90.5652         0.994536       -0.446706        0.0010447         87.7006       0.00600958          22.862  
0.2287                0.00602495         24.1549       0.00177255         89.6218         0.994512       -0.466647       0.00307069        -91.0158  
                      0.00118502         87.6108       0.00604413         23.7629       0.00348795        -89.8841         0.994544       -0.466613  
                        0.994495       -0.465067       0.00293665        -90.9001       0.00601991         23.8702       0.00163722         90.3636  
                       0.0035012        -90.6002         0.994529       -0.467021       0.00121944         87.7659        0.0060522          23.785  
0.2386                0.00607442         25.0257       0.00194094         89.4618          0.99451       -0.486844       0.00310492        -90.9754  
                      0.00135266         87.5207        0.0060857         24.6661       0.00351978        -89.8691          0.99454       -0.486776  
                        0.994497       -0.485346       0.00297226         -90.851       0.00606645         24.7661       0.00180684         90.1294  
                      0.00353036        -90.6389         0.994522         -0.4873       0.00139134          87.816       0.00609633         24.6942  
0.2485                0.00612425         25.8774       0.00210456         89.3379         0.994508       -0.507045       0.00314361        -90.9427  
                      0.00151743          87.441        0.0061294         25.5591       0.00355425        -89.8597         0.994535       -0.506947  
                        0.994498        -0.50568       0.00301259        -90.8129       0.00611429          25.648       0.00197199         89.9442  
                      0.00356161        -90.6807         0.994516       -0.507553       0.00156059         87.8565       0.00614196         25.5895  
0.2584                0.00617443         26.7132       0.00226396          89.241         0.994505        -0.52725       0.00318624        -90.9177  
                      0.00167947         87.3688       0.00617507         26.4405       0.00359119        -89.8559          0.99453       -0.527123  
                        0.994497       -0.526051       0.00305706        -90.7855       0.00616342         26.5157       0.00213317         89.7954  
                      0.00359477        -90.7252          0.99451       -0.527786       0.00172734         87.8907       0.00618906         26.4708  
0.2683                0.00622504         27.5356       0.00241965         89.1649         0.994503       -0.547458       0.00323238        -90.9002  
                      0.00183891         87.3019       0.00622259         27.3095       0.00363044        -89.8574         0.994525       -0.547305  
                        0.994496       -0.546444       0.00310518        -90.7681       0.00621381         27.3695       0.00229083         89.6743  
                      0.00362969        -90.7717         0.994505       -0.548006       0.00189178         87.9207       0.00623762         27.3382  
0.2782                0.00627619         28.3464       0.00257206         89.1051           0.9945        -0.56767       0.00328164        -90.8898  
                      0.00199583         87.2384       0.00627185         28.1655       0.00367184         -89.864         0.994519        -0.56749  
                        0.994494       -0.566844       0.00315654        -90.7599       0.00626544         28.2092       0.00244534         89.5749  
                      0.00366619        -90.8194         0.994499       -0.568214       0.00205404         87.9477       0.00628759         28.1915  
0.2881                0.00632801         29.1465       0.00272153         89.0582         0.994496       -0.587884        0.0033337        -90.8862  
                      0.00215028         87.1763       0.00632277          29.008       0.00371525        -89.8757         0.994514       -0.587678  
                        0.994491       -0.587242       0.00321076        -90.7603       0.00631829          29.035       0.00259702         89.4926  
                      0.00370414        -90.8678         0.994493       -0.588414       0.00221426         87.9726       0.00633895         29.0307  
0.298                 0.00638063         29.9365       0.00286841         89.0217         0.994493         -0.6081       0.00338826        -90.8888  
                       0.0023023         87.1133       0.00637526         29.8368       0.00376055        -89.8921         0.994508       -0.607868  
                        0.994487       -0.607633       0.00326754        -90.7685       0.00637234         29.8468       0.00274616         89.4242  
                      0.00374338        -90.9159         0.994487       -0.608606       0.00237259          87.996       0.00639167         29.8559  
0.3079                0.00643415         30.7166       0.00301297         88.9937         0.994489       -0.628318       0.00344508        -90.8974  
                      0.00245186         87.0468       0.00642926         30.6516       0.00380759        -89.9131         0.994502        -0.62806  
                        0.994482       -0.628011       0.00332659        -90.7839       0.00642757         30.6448       0.00289302         89.3671  
                      0.00378379        -90.9631         0.994482       -0.628793       0.00252915         88.0183       0.00644572         30.6669  
0.3178                0.00648865         31.4866       0.00315545         88.9726         0.994485       -0.648538       0.00350394        -90.9115  
                      0.00259884         86.9733       0.00648471         31.4525       0.00385627        -89.9384         0.994496       -0.648254  
                        0.994477       -0.648376       0.00338767        -90.8059       0.00648395         31.4289       0.00303783         89.3193  
                      0.00382524        -91.0082         0.994476       -0.648975       0.00268406         88.0399       0.00650107          31.464  
0.3277                0.00654419         32.2464       0.00329608         88.9574          0.99448       -0.668758       0.00356461        -90.9307  
                      0.00274305         86.8879       0.00654156         32.2393       0.00390646        -89.9679          0.99449       -0.668448  
                        0.994472       -0.668726       0.00345056        -90.8338       0.00654146         32.1993       0.00318079         89.2793  
                       0.0038676        -91.0505          0.99447       -0.669153       0.00283743          88.061       0.00655768          32.247  
0.3376                 0.0066008         32.9956       0.00343506         88.9469         0.994475        -0.68898       0.00362694        -90.9545  
                      0.00288413         86.7829       0.00659975          33.012       0.00395805        -90.0014         0.994483       -0.688642  
                        0.994466       -0.689062       0.00351507        -90.8672       0.00660007         32.9561       0.00332207         89.2458  
                      0.00391078        -91.0887         0.994464       -0.689328       0.00298939         88.0818       0.00661552         33.0161  
0.3475                0.00665852          33.734       0.00357257         88.9406          0.99447       -0.709203       0.00369074        -90.9827  
                      0.00302145         86.6462       0.00665924         33.7707       0.00401092        -90.0388         0.994476       -0.708837  
                        0.994459       -0.709385       0.00358101        -90.9056       0.00665976         33.6994       0.00346186         89.2179  
                      0.00395467        -91.1219         0.994457       -0.709499       0.00314004         88.1025       0.00667456         33.7714  
0.3574                0.00671734         34.4614       0.00370879         88.9379         0.994465       -0.729427       0.00375587        -91.0149  
                      0.00315391         86.4555       0.00671998         34.5153       0.00406496        -90.0799          0.99447       -0.729032  
                        0.994453       -0.729695       0.00364823        -90.9485       0.00672051         34.4292        0.0036003         89.1947  
                      0.00399919        -91.1488         0.994451       -0.729668       0.00328951         88.1232       0.00673476         34.5129  
0.3673                0.00677726         35.1776       0.00384386         88.9382         0.994459       -0.749651       0.00382218        -91.0508  
                       0.0032796         86.1675       0.00678192         35.2461       0.00412006        -90.1247         0.994463       -0.749227  
                        0.994446       -0.749993       0.00371656        -90.9956       0.00678227         35.1458       0.00373754         89.1756  
                      0.00404428        -91.1682         0.994445       -0.749834       0.00343792         88.1442        0.0067961         35.2407  
0.3772                0.00683826         35.8823       0.00397796         88.9413         0.994453       -0.769877       0.00388953        -91.0902  
                      0.00339495         85.6831       0.00684504          35.963       0.00417607        -90.1731         0.994456       -0.769422  
                        0.994438       -0.770281       0.00378586        -91.0467       0.00684504         35.8491       0.00387373           89.16  
                      0.00408989         -91.179         0.994438       -0.769998       0.00358538         88.1655       0.00685853         35.9551  
0.3871                0.00690034         36.5754       0.00411122         88.9468         0.994447       -0.790103       0.00395778        -91.1327  
                      0.00349372         84.7287       0.00690928         36.6663       0.00423288        -90.2251         0.994448       -0.789617  
                        0.994431        -0.79056       0.00385597        -91.1015       0.00690877         36.5393         0.004009         89.1476  
                      0.00413598        -91.1802         0.994432        -0.79016       0.00373205         88.1875       0.00692203         36.6561  
0.397                 0.00696345         37.2569       0.00424382         88.9548         0.994441       -0.810331       0.00402678        -91.1784  
                      0.00357516         82.3052        0.0069746          37.356        0.0042903        -90.2807         0.994441       -0.809813  
                        0.994423        -0.81083       0.00392674          -91.16       0.00697344         37.2167       0.00414351         89.1379  
                      0.00418256        -91.1712         0.994425       -0.810321       0.00387808         88.2103       0.00698655         37.3439  
0.4069                0.00702756         37.9268       0.00437591         88.9652         0.994435       -0.830561       0.00409637        -91.2271  
                      0.00391776         74.8663       0.00704098         38.0323       0.00434817        -90.3401         0.994433       -0.830008  
                        0.994415       -0.831094       0.00399801        -91.2221         0.007039         37.8812       0.00427741         89.1309  
                      0.00422964        -91.1517         0.994418        -0.83048       0.00402366         88.2343       0.00705205         38.0187  
0.4168                0.00709263         38.5851       0.00450769          88.978         0.994428       -0.850793       0.00416636        -91.2787  
                      0.00495307         83.4001       0.00710838         38.6954       0.00440624        -90.4037         0.994425       -0.850205  
                        0.994407       -0.851351       0.00406959         -91.288       0.00710541          38.533        0.0044109         89.1263  
                      0.00427725        -91.1222         0.994411       -0.850638       0.00416903         88.2599        0.0071185         38.6806  
0.4267                0.00715862         39.2319       0.00463938         88.9935         0.994421       -0.871029       0.00423653        -91.3335  
                      0.00472172         88.1534       0.00717676         39.3453       0.00446421         -90.472         0.994417       -0.870403  
                        0.994399       -0.871604       0.00414126        -91.3579       0.00717263         39.1722        0.0045442         89.1241  
                      0.00432541        -91.0845         0.994404       -0.870796       0.00431448         88.2876       0.00718585         39.3298  
0.4366                0.00722546         39.8674       0.00477128         89.0122         0.994413       -0.891271       0.00430657        -91.3918  
                      0.00469834         88.5743       0.00724608         39.9823       0.00452168        -90.5457         0.994409       -0.890603  
                         0.99439       -0.891853       0.00421274        -91.4325       0.00724059          39.799       0.00467764         89.1245  
                      0.00437411         -91.042         0.994397       -0.890952       0.00446044         88.3183       0.00725405         39.9667  
0.4465                0.00729308         40.4917       0.00490375         89.0349         0.994405       -0.911521         0.004376        -91.4542  
                      0.00476599          88.564       0.00731631         40.6065       0.00457803        -90.6262           0.9944       -0.910807  
                        0.994381         -0.9121       0.00428367        -91.5127       0.00730919         40.4134       0.00481167         89.1279  
                      0.00442327        -91.0006          0.99439       -0.911109       0.00460752         88.3531       0.00732302         40.5913  
0.4564                0.00736137         41.1054       0.00503736         89.0628         0.994397       -0.931785        0.0044441        -91.5221  
                      0.00487051         88.5157       0.00738741         41.2181       0.00463236        -90.7156         0.994391       -0.931016  
                        0.994372       -0.932346       0.00435351        -91.6002       0.00737827         41.0156       0.00494703         89.1352  
                      0.00447265        -90.9701         0.994382       -0.931267       0.00475663         88.3939       0.00739267         41.2041  
0.4663                0.00743019         41.7088       0.00517292         89.0981         0.994389       -0.952072       0.00450956        -91.5983  
                      0.00499555         88.4891       0.00745934         41.8171       0.00468313        -90.8176         0.994382       -0.951234  
                        0.994362       -0.952595       0.00442146        -91.6977       0.00744756         41.6058       0.00508505         89.1482  
                      0.00452179        -90.9662         0.994374       -0.951425       0.00490932         88.4438       0.00746286         41.8055  
0.4762                 0.0074993         42.3031       0.00531179         89.1445         0.994379       -0.972399       0.00456971        -91.6888  
                      0.00513731         88.5021       0.00753205         42.4036       0.00472761        -90.9391         0.994372       -0.971466  
                        0.994351       -0.972849       0.00448623          -91.81       0.00751647          42.185       0.00522838         89.1708  
                      0.00456983        -91.0161         0.994367       -0.971587       0.00506836         88.5081       0.00753336         42.3962  
0.4861                0.00756831         42.8902       0.00545644         89.2092         0.994367       -0.992796       0.00461809        -91.8098  
                      0.00530035         88.5801       0.00760549         42.9775       0.00476023        -91.0942          0.99436       -0.991722  
                         0.99434       -0.993114       0.00454545        -91.9469       0.00758361         42.7583       0.00538358         89.2134  
                      0.00461557        -91.1692         0.994359       -0.991753        0.0052394         88.5972        0.0076037         42.9777  
0.496                 0.00763638         43.4742       0.00561188         89.3073         0.994347        -1.01327       0.00463347        -92.0225  
                      0.00550523         88.8057       0.00767959         43.5386        0.0047676        -91.3165         0.994347        -1.01202  
                        0.994326         -1.0134       0.00459441         -92.129        0.0076457         43.3586        0.0055721         89.3127  
                      0.00465811        -91.5262         0.994351        -1.01193       0.00543607         88.7343       0.00767281         43.5544  
0.505900032           0.00770157         44.0672       0.00579018         89.4771         0.994305        -1.03229       0.00448162        -92.8545  
                       0.0058446         89.6251       0.00775423         44.0861       0.00470718        -91.7111         0.994327        -1.03236  
                        0.994308         -1.0337       0.00462187        -92.4109       0.00771651         44.1437       0.00593198         89.7428  
                       0.0047018        -92.3085         0.994343        -1.03211       0.00570195         88.9817       0.00773745         44.1454  
0.5158                0.00775802         44.7215       0.00603014         89.8509         0.994336        -1.05045       0.00606698        -92.2051  
                      0.00722839         104.305       0.00782925         44.6181        0.0043324        -92.8451         0.994279          -1.052  
                        0.994278        -1.05393       0.00459294         -92.993       0.00782859         44.6836       0.00453932         88.9044  
                      0.00478413        -93.9262         0.994336        -1.05233       0.00629319          89.546       0.00778897         44.9373  
0.525699968           0.00779913          45.956       0.00656133         91.3513         0.994343        -1.07149       0.00527974        -91.5283  
                      0.00490405         88.1605       0.00790435         45.1287       0.00910229        -78.4541         0.994328        -1.06725  
                        0.994198        -1.07174       0.00432109         -95.463       0.00790936         45.0965       0.00553614         88.7859  
                      0.00505315        -95.8621         0.994329        -1.07258       0.00298724         48.0497       0.00797382         45.5283  
0.5356                0.00809057         45.8051       0.00340796         93.8407         0.994336         -1.0921       0.00525483         -91.683  
                      0.00541506         87.6987       0.00797948         45.5953       0.00587557        -89.3266         0.994342        -1.09025  
                        0.994355        -1.08698       0.00794538        -98.6365       0.00798446         45.5651       0.00576399         88.8902  
                      0.00543967          -94.47         0.994325        -1.09292       0.00515362         86.3501       0.00802436         45.7361  
0.545499968           0.00809248         46.0263       0.00557071         87.9143         0.994327         -1.1125       0.00529444        -91.7922  
                      0.00565665          87.746       0.00806993         45.9243       0.00568102        -90.1463         0.994329         -1.1112  
                        0.994341        -1.11166       0.00567149        -91.0542       0.00806007         46.0489       0.00592766         88.9363  
                       0.0055643        -92.0213         0.994333        -1.11312       0.00554196         87.3472        0.0080905         46.2092  
0.5554                0.00814846         46.5186       0.00591381         88.2946         0.994318        -1.13282       0.00535343        -91.8813  
                      0.00583815         87.7964       0.00818224         46.6915       0.00565585        -90.4837         0.994317        -1.13167  
                        0.994319        -1.13282       0.00551613        -91.3576       0.00813665         46.5332       0.00607203         88.9622  
                       0.0055933        -90.8349         0.994323        -1.13116       0.00576844         87.6696        0.0081635         46.6999  
0.565299968           0.00821713         47.0147        0.0061181         88.4711         0.994308        -1.15308       0.00542095        -91.9604  
                      0.00599681         87.8356       0.00824397         47.2509        0.0056786        -90.6892         0.994306        -1.15199  
                        0.994303        -1.15338       0.00551155        -91.5733       0.00821413         47.0128       0.00620791         88.9789  
                      0.00562696        -90.3419         0.994293        -1.15157       0.00594826         87.8311       0.00823947         47.1869  
0.5752                0.00829069         47.5014       0.00628218         88.5716         0.994299        -1.17332       0.00549304         -92.034  
                      0.00614435         87.8669       0.00831777           47.73       0.00572175        -90.8402         0.994294        -1.17224  
                         0.99429        -1.17375       0.00554946        -91.7302       0.00829242         47.4857       0.00633923         88.9905  
                      0.00567471        -90.1423          0.99428        -1.17203       0.00610808           87.93       0.00831714         47.6664  
0.585099968           0.00836684         47.9776       0.00642907         88.6367         0.994289        -1.19354       0.00556792        -92.1043  