! TOUCHSTONE file generated by CST MICROWAVE STUDIO
! Date and time: Mon Oct 20 12:10:19 2014
! Project name: Untitled_1.cst
# GHZ S MA R 50
0.1                   0.00165446        -49.2674      0.000879825         90.8652         0.998835       -0.270927      0.000559511        -92.0093  
                     0.000879825         90.8651       0.00165149        -49.1837      0.000559511        -92.0097         0.998835       -0.270628  
                        0.998835       -0.270922      0.000559511        -92.0097       0.00165442        -49.2739      0.000879824          90.865  
                     0.000559511        -92.0093         0.998835       -0.270628      0.000879824          90.865       0.00165149        -49.1836  
0.1099                0.00175019        -52.0274      0.000967364         90.9968         0.998821       -0.297574      0.000614419        -92.1662  
                       0.0009671         90.9828       0.00174573        -51.9348      0.000614419        -92.1661         0.998822       -0.297275  
                        0.998822       -0.297561      0.000614418        -92.1666       0.00175002        -52.0283      0.000967304         90.9978  
                      0.00061442        -92.1655         0.998821       -0.297279      0.000967169         90.9837       0.00174586        -51.9345  
0.1198                0.00184924        -54.5222       0.00105503         91.1188         0.998807        -0.32421      0.000669313        -92.3264  
                      0.00105444          91.095       0.00184343        -54.4258      0.000669313         -92.326         0.998807       -0.323906  
                        0.998808       -0.324189       0.00066931         -92.327       0.00184894        -54.5191        0.0010549         91.1216  
                     0.000669314        -92.3252         0.998807       -0.323914       0.00105459         91.0962       0.00184366        -54.4251  
0.129700008           0.00195113        -56.7845       0.00114281         91.2325         0.998792       -0.350833       0.00072419        -92.4892  
                      0.00114185         91.2028        0.0019441        -56.6878       0.00072419        -92.4886         0.998792       -0.350522  
                        0.998793       -0.350804      0.000724185        -92.4899       0.00195071        -56.7785       0.00114263         91.2376  
                     0.000724192        -92.4876         0.998792       -0.350533       0.00114207         91.2037       0.00194442        -56.6864  
0.1396                0.00205548        -58.8431       0.00123073         91.3388         0.998776       -0.377442      0.000779048        -92.6541  
                      0.00122933         91.3072       0.00204736        -58.7483      0.000779049        -92.6533         0.998776       -0.377121  
                        0.998777       -0.377407      0.000779041        -92.6548       0.00205494        -58.8352       0.00123049         91.3467  
                     0.000779051        -92.6521         0.998776       -0.377134       0.00122962         91.3071       0.00204774        -58.7462  
0.1495                0.00216194        -60.7233       0.00131875          91.438         0.998759       -0.404037      0.000833885        -92.8207  
                      0.00131687         91.4087       0.00215285        -60.6316      0.000833886        -92.8197         0.998759       -0.403702  
                         0.99876       -0.403997      0.000833876        -92.8215       0.00216132        -60.7141       0.00131847         91.4494  
                     0.000833888        -92.8184         0.998759       -0.403717       0.00131724         91.4072       0.00215329        -60.6289  
0.1594                0.00227026        -62.4469       0.00140688         91.5305         0.998742       -0.430617      0.000888697        -92.9886  
                      0.00140448          91.508        0.0022603        -62.3591      0.000888698        -92.9875         0.998741       -0.430265  
                        0.998742       -0.430572      0.000888687        -92.9894       0.00226955        -62.4369       0.00140657          91.546  
                     0.000888702        -92.9861          0.99874       -0.430281       0.00140492         91.5045       0.00226077        -62.3558  
0.1693                0.00238019        -64.0329       0.00149508         91.6166         0.998723        -0.45718      0.000943483        -93.1576  
                      0.00149216         91.6054       0.00236946        -63.9493      0.000943485        -93.1564         0.998722        -0.45681  
                        0.998723       -0.457132      0.000943471        -93.1585       0.00237942        -64.0225       0.00149477         91.6366  
                     0.000943489         -93.155         0.998721       -0.456826       0.00149266         91.5996       0.00236997        -63.9454  
0.1792                0.00249155        -65.4975       0.00158331         91.6968         0.998703       -0.483728      0.000998239        -93.3276  
                      0.00157991         91.7012       0.00248014        -65.4182      0.000998243        -93.3263         0.998702       -0.483335  
                        0.998703       -0.483676      0.000998226        -93.3285       0.00249072        -65.4869       0.00158304         91.7213  
                     0.000998248        -93.3248         0.998701       -0.483351       0.00158045         91.6929       0.00248066        -65.4138  
0.1891                0.00260416        -66.8548       0.00167152         91.7721         0.998682       -0.510258       0.00105296        -93.4983  
                      0.00166772         91.7959       0.00259215        -66.7797       0.00105297         -93.497         0.998681        -0.50984  
                        0.998683       -0.510204       0.00105295        -93.4993       0.00260329        -66.8443       0.00167135         91.8007  
                      0.00105298        -93.4954          0.99868       -0.509856       0.00166829         91.7851       0.00259268         -66.775  
0.199                 0.00271789        -68.1171       0.00175964         91.8439          0.99866        -0.53677       0.00110766        -93.6697  
                       0.0017556         91.8897       0.00270534        -68.0459       0.00110766        -93.6684         0.998659       -0.536324  
                        0.998661       -0.536715       0.00110764        -93.6707       0.00271698        -68.1067       0.00175964         91.8755  
                      0.00110767        -93.6667         0.998658        -0.53634       0.00175617         91.8763       0.00270588        -68.0408  
0.2089                0.00283261        -69.2947       0.00184763         91.9144         0.998638       -0.563264       0.00116231        -93.8417  
                      0.00184356          91.983       0.00281958        -69.2273       0.00116232        -93.8404         0.998636       -0.562788  
                        0.998638       -0.563208       0.00116229        -93.8427       0.00283168        -69.2846       0.00184785          91.947  
                      0.00116233        -93.8387         0.998635       -0.562804       0.00184411         91.9672       0.00282012        -69.2219  
0.2188                0.00294822        -70.3968       0.00193544         91.9861         0.998614       -0.589738       0.00121693        -94.0142  
                      0.00193158         92.0758       0.00293477        -70.3329       0.00121694        -94.0128         0.998612       -0.589231  
                        0.998615       -0.589683       0.00121691        -94.0152       0.00294728         -70.387       0.00193592         92.0172  
                      0.00121695        -94.0111         0.998612       -0.589245        0.0019321          92.058        0.0029353        -70.3273  
0.2287                0.00306462        -71.4314       0.00202308         92.0617          0.99859       -0.616193        0.0012715         -94.187  
                      0.00201968         92.1686        0.0030508        -71.3707       0.00127151        -94.1857         0.998588       -0.615652  
                         0.99859       -0.616138       0.00127148        -94.1881       0.00306368        -71.4219       0.00202382         92.0886  
                      0.00127152        -94.1839         0.998587       -0.615666       0.00202014         92.1492       0.00305132         -71.365  
0.2386                0.00318174        -72.4054        0.0021106         92.1431         0.998564       -0.642627       0.00132603        -94.3603  
                      0.00210786         92.2614       0.00316758        -72.3476       0.00132605         -94.359         0.998562       -0.642052  
                        0.998565       -0.642574       0.00132601        -94.3613        0.0031808        -72.3962       0.00211155         92.1639  
                      0.00132606        -94.3572         0.998562       -0.642064       0.00210824         92.2409       0.00316808        -72.3417  
0.2485                 0.0032995        -73.3247       0.00219809         92.2314         0.998538       -0.669041       0.00138052        -94.5338  
                      0.00219613         92.3544       0.00328504        -73.2697       0.00138054        -94.5325         0.998536        -0.66843  
                        0.998539        -0.66899        0.0013805        -94.5348       0.00329858        -73.3159       0.00219916         92.2449  
                      0.00138055        -94.5307         0.998535       -0.668441       0.00219642         92.3334       0.00328553        -73.2637  
0.2584                0.00341784        -74.1948       0.00228562         92.3265         0.998511       -0.695434       0.00143496        -94.7076  
                      0.00228451         92.4478       0.00340312        -74.1422       0.00143497        -94.7063         0.998509       -0.694785  
                        0.998512       -0.695385       0.00143494        -94.7086       0.00341694        -74.1862       0.00228673         92.3329  
                      0.00143499        -94.7045         0.998508       -0.694795        0.0022847         92.4269       0.00340358        -74.1361  
0.2683                0.00353671        -75.0202       0.00237332         92.4272         0.998483       -0.721805       0.00148934        -94.8816  
                      0.00237299         92.5415       0.00352174        -74.9699       0.00148936        -94.8804         0.998481       -0.721118  
                        0.998484       -0.721759       0.00148932        -94.8826       0.00353583         -75.012       0.00237438         92.4275  
                      0.00148938        -94.8785          0.99848       -0.721127       0.00237308         92.5212       0.00352219        -74.9638  
0.2782                0.00365606        -75.8051       0.00246123         92.5319         0.998454       -0.748155       0.00154368        -95.0557  
                       0.0024616         92.6356       0.00364087        -75.7568        0.0015437        -95.0546         0.998452       -0.747429  
                        0.998455       -0.748112       0.00154365        -95.0568       0.00365521        -75.7972       0.00246218         92.5278  
                      0.00154371        -95.0528         0.998451       -0.747436       0.00246159         92.6164       0.00364129        -75.7507  
0.2881                0.00377584        -76.5531       0.00254942          92.639         0.998424       -0.774482       0.00159795          -95.23  
                      0.00255035         92.7301       0.00376045        -76.5067       0.00159798         -95.229         0.998423       -0.773717  
                        0.998425       -0.774443       0.00159793        -95.2311       0.00377503        -76.5454       0.00255023         92.6321  
                      0.00159799        -95.2272         0.998422       -0.773724       0.00255024         92.7123       0.00376085        -76.5006  
0.298                 0.00389602        -77.2674        0.0026379         92.7471         0.998394       -0.800787       0.00165217        -95.4045  
                      0.00263925         92.8248       0.00388044        -77.2228        0.0016522        -95.4036         0.998392       -0.799982  
                        0.998395       -0.800751       0.00165215        -95.4055       0.00389524          -77.26       0.00263857         92.7386  
                      0.00165222        -95.4017         0.998391       -0.799988       0.00263906         92.8088       0.00388081        -77.2167  
0.3079                0.00401655         -77.951       0.00272669          92.855         0.998363       -0.827069       0.00170633         -95.579  
                      0.00272831         92.9197       0.00400079         -77.908       0.00170636        -95.5782         0.998361       -0.826225  
                        0.998364       -0.827037       0.00170631        -95.5801       0.00401582        -77.9438       0.00272721          92.846  
                      0.00170638        -95.5763          0.99836        -0.82623       0.00272806         92.9056       0.00400114        -77.9019  
0.3178                0.00413741        -78.6063       0.00281577         92.9619         0.998331       -0.853328       0.00176043        -95.7536  
                      0.00281755         93.0147       0.00412149        -78.5648       0.00176046        -95.7529         0.998329       -0.852445  
                        0.998332         -0.8533       0.00176041        -95.7547       0.00413673        -78.5993       0.00281617         92.9532  
                      0.00176048        -95.7511         0.998328       -0.852449       0.00281725         93.0024       0.00412181        -78.5588  
0.3277                0.00425857        -79.2357       0.00290513         93.0674         0.998298       -0.879564       0.00181446        -95.9283  
                      0.00290698         93.1095       0.00424248        -79.1955       0.00181449        -95.9277         0.998296       -0.878643  
                        0.998299       -0.879539       0.00181444        -95.9294       0.00425793        -79.2289       0.00290543         93.0592  
                      0.00181451        -95.9258         0.998296       -0.878646       0.00290664         93.0991       0.00424278        -79.1896  
0.3376                   0.00438        -79.8412       0.00299477         93.1711         0.998264       -0.905777       0.00186843         -96.103  
                      0.00299661         93.2041       0.00436375        -79.8023       0.00186846        -96.1025         0.998263       -0.904817  
                        0.998265       -0.905756        0.0018684        -96.1041        0.0043794        -79.8345       0.00299499         93.1637  
                      0.00186848        -96.1007         0.998262        -0.90482       0.00299625         93.1954       0.00436402        -79.7965  
0.3475                0.00450167        -80.4247       0.00308468          93.273          0.99823       -0.931967       0.00192232        -96.2777  
                      0.00308644         93.2983       0.00448527         -80.387       0.00192236        -96.2773         0.998229       -0.930969  
                        0.998231       -0.931949        0.0019223        -96.2788       0.00450112        -80.4181       0.00308483         93.2664  
                      0.00192238        -96.2755         0.998228       -0.930971       0.00308608         93.2911       0.00448551        -80.3812  
0.3574                0.00462356        -80.9877       0.00317484         93.3729         0.998195       -0.958133       0.00197614        -96.4524  
                      0.00317649         93.3919         0.004607        -80.9512       0.00197618        -96.4521         0.998194       -0.957099  
                        0.998196       -0.958118       0.00197612        -96.4535       0.00462306        -80.9813       0.00317494         93.3672  
                       0.0019762        -96.4503         0.998193         -0.9571       0.00317613         93.3861       0.00460723        -80.9455  
0.3673                0.00474565         -81.532       0.00326524          93.471         0.998159       -0.984276       0.00202989         -96.627  
                      0.00326675         93.4849       0.00472894        -81.4965       0.00202993         -96.627         0.998158       -0.983205  
                         0.99816       -0.984264       0.00202987        -96.6282        0.0047452        -81.5256        0.0032653          93.466  
                      0.00202995        -96.6252         0.998157       -0.983206       0.00326641         93.4803       0.00472914        -81.4909  
0.3772                0.00486792        -82.0587       0.00335588         93.5672         0.998122         -1.0104       0.00208357        -96.8017  
                      0.00335725         93.5771       0.00485106        -82.0242       0.00208361        -96.8017         0.998122        -1.00929  
                        0.998123        -1.01039       0.00208355        -96.8028       0.00486752        -82.0524       0.00335592         93.5629  
                      0.00208363           -96.8         0.998121        -1.00929       0.00335693         93.5735       0.00485123        -82.0187  
0.3871                0.00499035        -82.5691       0.00344676         93.6617         0.998085        -1.03649       0.00213716        -96.9762  
                      0.00344797         93.6685       0.00497333        -82.5356        0.0021372        -96.9765         0.998085        -1.03535  
                        0.998086        -1.03649       0.00213714        -96.9774          0.00499        -82.5628       0.00344677          93.658  
                      0.00213722        -96.9747         0.998084        -1.03535       0.00344767         93.6657       0.00497349        -82.5302  
0.397                 0.00511293        -83.0644       0.00353786         93.7545         0.998047        -1.06256       0.00219067        -97.1508  
                      0.00353892          93.759       0.00509575        -83.0319       0.00219072        -97.1511         0.998047        -1.06139  
                        0.998048        -1.06256       0.00219066         -97.152       0.00511263        -83.0581       0.00353786         93.7514  
                      0.00219073        -97.1494         0.998046        -1.06139       0.00353865         93.7568       0.00509588        -83.0265  
0.4069                0.00523563        -83.5455        0.0036292         93.8457         0.998008        -1.08861       0.00224411        -97.3252  
                       0.0036301         93.8484       0.00521829        -83.5139       0.00224415        -97.3257         0.998008        -1.08741  
                        0.998009        -1.08861       0.00224409        -97.3264       0.00523538        -83.5393       0.00362919          93.843  
                      0.00224416         -97.324         0.998008        -1.08741       0.00362987         93.8468        0.0052184        -83.5087  
0.4168                0.00535845        -84.0135       0.00372076         93.9354         0.997969        -1.11464       0.00229745        -97.4995  
                      0.00372153         93.9369       0.00534094        -83.9827       0.00229749        -97.5002         0.997969         -1.1134  
                        0.997969        -1.11464       0.00229744        -97.5008       0.00535825        -84.0072       0.00372074         93.9331  
                      0.00229751        -97.4985         0.997968         -1.1134       0.00372132         93.9356       0.00534103        -83.9776  
0.4267                0.00548137         -84.469       0.00381255         94.0237         0.997929        -1.14064       0.00235071        -97.6738  
                      0.00381318         94.0243       0.00546368        -84.4391       0.00235075        -97.6746         0.997929        -1.13937  
                        0.997929        -1.14064        0.0023507        -97.6751       0.00548122        -84.4628       0.00381253         94.0217  
                      0.00235077        -97.6729         0.997928        -1.13937       0.00381301         94.0233       0.00546375        -84.4341  
0.4366                0.00560438         -84.913       0.00390457         94.1106         0.997888        -1.16662       0.00240389        -97.8479  
                      0.00390508         94.1106        0.0055865         -84.884       0.00240392        -97.8489         0.997888        -1.16532  
                        0.997888        -1.16662       0.00240388        -97.8492       0.00560427        -84.9068       0.00390454         94.1089  
                      0.00240394        -97.8472         0.997888        -1.16532       0.00390493         94.1098       0.00558656         -84.879  
0.4465                0.00572746        -85.3462       0.00399681         94.1962         0.997846        -1.19258       0.00245697        -98.0219  
                      0.00399722         94.1959       0.00570939        -85.3179         0.002457         -98.023         0.997847        -1.19125  
                        0.997847        -1.19258       0.00245696        -98.0233       0.00572739        -85.3399       0.00399679         94.1947  
                      0.00245701        -98.0213         0.997846        -1.19125       0.00399709         94.1951       0.00570943        -85.3131  
0.4564                 0.0058506        -85.7692       0.00408928         94.2805         0.997804        -1.21851       0.00250996        -98.1958  
                      0.00408959         94.2801       0.00583233        -85.7417       0.00250999         -98.197         0.997805        -1.21715  
                        0.997804        -1.21851       0.00250995        -98.1972       0.00585057        -85.7628       0.00408926         94.2792  
                         0.00251        -98.1953         0.997804        -1.21715       0.00408949         94.2794       0.00583235        -85.7369  
0.4663                0.00597379        -86.1825       0.00418199         94.3636         0.997761        -1.24442       0.00256285        -98.3695  
                      0.00418221         94.3632       0.00595532        -86.1558       0.00256288        -98.3709         0.997762        -1.24304  
                        0.997761        -1.24442       0.00256285         -98.371        0.0059738        -86.1761       0.00418196         94.3625  
                      0.00256288        -98.3692         0.997762        -1.24304       0.00418213         94.3625       0.00595532        -86.1511  
0.4762                0.00609702        -86.5868       0.00427493         94.4456         0.997717        -1.27031       0.00261565        -98.5431  
                      0.00427507         94.4452       0.00607834        -86.5609       0.00261567        -98.5446         0.997719        -1.26889  
                        0.997718        -1.27031       0.00261565        -98.5446       0.00609707        -86.5803        0.0042749         94.4445  
                      0.00261568        -98.5429         0.997718         -1.2689       0.00427501         94.4445       0.00607833        -86.5563  
0.4861                0.00622028        -86.9826        0.0043681         94.5264         0.997673        -1.29617       0.00266835        -98.7165  
                      0.00436817         94.5261       0.00620137        -86.9574       0.00266837        -98.7181         0.997675        -1.29473  
                        0.997673        -1.29617       0.00266836        -98.7181       0.00622037         -86.976       0.00436807         94.5254  
                      0.00266837        -98.7164         0.997674        -1.29473       0.00436813         94.5254       0.00620135         -86.953  
0.496                 0.00634355        -87.3704        0.0044615         94.6061         0.997628        -1.32202       0.00272096        -98.8898  
                      0.00446152          94.606       0.00632442        -87.3459       0.00272097        -98.8915          0.99763        -1.32055  
                        0.997628        -1.32202       0.00272096        -98.8915       0.00634369        -87.3637       0.00446148         94.6052  
                      0.00272096        -98.8898          0.99763        -1.32055        0.0044615         94.6052       0.00632439        -87.3415  
0.505900032           0.00646684        -87.7505       0.00455515         94.6847         0.997583        -1.34783       0.00277346        -99.0629  
                      0.00455512         94.6848       0.00644748        -87.7268       0.00277346        -99.0647         0.997585        -1.34634  
                        0.997583        -1.34783       0.00277347        -99.0647       0.00646701        -87.7438       0.00455513         94.6839  
                      0.00277345        -99.0629         0.997584        -1.34634        0.0045551         94.6839       0.00644743        -87.7225  
0.5158                0.00659013        -88.1235       0.00464904         94.7623         0.997537        -1.37363       0.00282586        -99.2359  
                      0.00464896         94.7626       0.00657052        -88.1004       0.00282585        -99.2377         0.997539        -1.37211  
                        0.997537        -1.37363       0.00282587        -99.2377       0.00659033        -88.1166       0.00464902         94.7615  
                      0.00282584        -99.2359         0.997538        -1.37211       0.00464896         94.7617       0.00657046        -88.0962  
0.525699968           0.00671342        -88.4896       0.00474316         94.8388          0.99749         -1.3994       0.00287816        -99.4086  
                      0.00474306         94.8394       0.00669355        -88.4673       0.00287814        -99.4105         0.997492        -1.39786  
                         0.99749         -1.3994       0.00287817        -99.4106       0.00671365        -88.4827       0.00474314         94.8381  
                      0.00287812        -99.4087         0.997492        -1.39786       0.00474306         94.8383       0.00669348        -88.4632  
0.5356                0.00683669        -88.8493       0.00483754         94.9143         0.997442        -1.42515       0.00293035        -99.5813  
                       0.0048374         94.9151       0.00681656        -88.8276       0.00293033        -99.5832         0.997445        -1.42358  
                        0.997442        -1.42515       0.00293036        -99.5833       0.00683694        -88.8422       0.00483752         94.9136  
                       0.0029303        -99.5812         0.997444        -1.42359       0.00483741          94.914       0.00681648        -88.8236  
0.545499968           0.00695993        -89.2028       0.00493216         94.9889         0.997394        -1.45088       0.00298244        -99.7538  
                        0.004932         94.9898       0.00693954        -89.1818        0.0029824        -99.7556         0.997397        -1.44929  
                        0.997394        -1.45088       0.00298245        -99.7559       0.00696022        -89.1956       0.00493214         94.9882  
                      0.00298237        -99.7536         0.997396        -1.44929       0.00493201         94.9886       0.00693945        -89.1779  
0.5554                0.00708314        -89.5505       0.00502703         95.0624         0.997345        -1.47659       0.00303441        -99.9261  
                      0.00502685         95.0635       0.00706247        -89.5302       0.00303437        -99.9279         0.997348        -1.47497  
                        0.997345        -1.47658       0.00303443        -99.9283       0.00708345        -89.5432       0.00502701         95.0617  
                      0.00303433        -99.9258         0.997348        -1.47497       0.00502687         95.0623       0.00706237        -89.5264  
0.565299968           0.00720632        -89.8927       0.00512215          95.135         0.997296        -1.50227       0.00308628        -100.098  
                      0.00512196         95.1363       0.00718536         -89.873       0.00308623          -100.1         0.997299        -1.50062  
                        0.997296        -1.50226       0.00308629        -100.101       0.00720665        -89.8852       0.00512213         95.1343  
                      0.00308619        -100.098         0.997299        -1.50063       0.00512198          95.135       0.00718526        -89.8693  
0.5752                0.00732945        -90.2295       0.00521752         95.2066         0.997246        -1.52793       0.00313804         -100.27  
                      0.00521732          95.208        0.0073082        -90.2106       0.00313797        -100.272         0.997249        -1.52626  
                        0.997246        -1.52792       0.00313805        -100.273        0.0073298         -90.222       0.00521751         95.2059  
                      0.00313793         -100.27         0.997249        -1.52626       0.00521734         95.2067       0.00730809        -90.2069  
0.585099968           0.00745253        -90.5613       0.00531315         95.2773         0.997195        -1.55356       0.00318968        -100.442  