! TOUCHSTONE file generated by CST MICROWAVE STUDIO
! Date and time: Thu Oct 16 11:51:56 2014
! Project name: Untitled_1.cst
# GHZ S MA R 50
0.1                   0.00183621        -12.0389       0.00140961         -93.463         0.997963        -0.23665       0.00314748        -91.7273  
                     0.000654272        -122.854        0.0018234        -12.7397       0.00254577         -100.77         0.997993       -0.236537  
                        0.997997       -0.236441       0.00309663        -91.7267       0.00180466        -12.3646        0.0014601        -93.4805  
                       0.0022676        -99.2345         0.997979        -0.23756      0.000939139        -120.071       0.00183286        -12.1349  
0.1099                0.00184595        -13.3344       0.00128828        -94.3397         0.997957       -0.259911       0.00319171        -91.9211  
                     0.000557315        -130.522       0.00183601        -14.1676       0.00259909        -100.586         0.997983       -0.259922  
                         0.99799       -0.259706       0.00314108        -91.9352       0.00181508        -13.6681       0.00133923        -94.2994  
                      0.00232256        -99.0952          0.99797        -0.26095      0.000833723         -124.91       0.00185005        -13.3151  
0.1198                 0.0018564        -14.6181        0.0011673        -95.3995         0.997951       -0.283169         0.003236        -92.1121  
                     0.000474345        -141.112       0.00184941        -15.5772       0.00265247        -100.414         0.997972       -0.283301  
                        0.997984       -0.282967       0.00318558        -92.1402        0.0018262        -14.9589       0.00121868        -95.2822  
                      0.00237756        -98.9682         0.997961       -0.284334      0.000735996        -131.078       0.00186785        -14.4793  
0.129700008           0.00186754        -15.8894       0.00104682        -96.7049         0.997944       -0.306424       0.00328033        -92.3003  
                     0.000413748        -155.426       0.00186359        -16.9679        0.0027059        -100.255         0.997961       -0.306672  
                        0.997976       -0.306225       0.00323014        -92.3419         0.001838        -16.2364       0.00109854        -96.4822  
                       0.0024326        -98.8529         0.997951       -0.307711       0.00064935        -138.993       0.00188627        -15.6275  
0.1396                0.00187935        -17.1477      0.000927007        -98.3503         0.997937       -0.329675       0.00332471        -92.4859  
                     0.000386078        -173.088       0.00187851         -18.339       0.00275938        -100.107          0.99795       -0.330037  
                        0.997969       -0.329478       0.00327475        -92.5403       0.00185048           -17.5      0.000978997        -97.9782  
                      0.00248766        -98.7484         0.997941       -0.331081       0.00057868        -149.064       0.00190529        -16.7595  
0.1495                0.00189184        -18.3926      0.000808182        -100.483          0.99793       -0.352922       0.00336914        -92.6689  
                      0.00039814         168.554       0.00189416        -19.6902       0.00281291        -99.9692         0.997939       -0.353395  
                        0.997961       -0.352728       0.00331941        -92.7357       0.00186361        -18.7492      0.000860289        -99.8911  
                      0.00254276        -98.6541         0.997931       -0.354445      0.000530303        -161.411        0.0019249        -17.8752  
0.1594                0.00190498        -19.6233      0.000690857        -103.348         0.997922       -0.376165       0.00341362        -92.8495  
                     0.000446621          152.77       0.00191053        -21.0211       0.00286648        -99.8418         0.997927       -0.376746  
                        0.997953       -0.375973       0.00336412        -92.9281        0.0018774        -19.9835      0.000742832        -102.415  
                      0.00259788        -98.5692         0.997921       -0.377801      0.000510481         -175.42        0.0019451        -18.9745  
0.1693                0.00191875        -20.8397      0.000575955        -107.371         0.997914       -0.399404       0.00345815        -93.0277  
                     0.000521369         140.791       0.00192758        -22.3312       0.00292008        -99.7238         0.997915       -0.400089  
                        0.997944       -0.399214       0.00340888        -93.1176       0.00189181        -21.2024      0.000627345        -105.881  
                      0.00265302        -98.4933          0.99791       -0.401151      0.000522363         170.372       0.00196586        -20.0574  
0.1792                0.00193316        -22.0411      0.000465287        -113.355         0.997906       -0.422639       0.00350273        -93.2036  
                     0.000612769         132.097        0.0019453        -23.6205       0.00297372        -99.6149         0.997903       -0.423426  
                        0.997936       -0.422451       0.00345369        -93.3043       0.00190684        -22.4057      0.000515169        -110.887  
                      0.00270819        -98.4257         0.997899       -0.424494      0.000563844         157.547       0.00198717        -21.1239  
0.1891                0.00194818        -23.2274      0.000362761        -122.885         0.997898        -0.44587       0.00354735        -93.3774  
                     0.000714393         125.768       0.00196367        -24.8886       0.00302738        -99.5144          0.99789       -0.446755  
                        0.997927       -0.445683       0.00349855        -93.4885       0.00192248         -23.593      0.000409061        -118.582  
                      0.00276336         -98.366         0.997888        -0.44783      0.000629006         146.936       0.00200904         -22.174  
0.199                  0.0019638        -24.3981      0.000277569        -139.003         0.997889       -0.469097       0.00359201        -93.5491  
                     0.000822403         121.059       0.00198267        -26.1355       0.00308107        -99.4221         0.997878       -0.470077  
                        0.997917       -0.468911       0.00354345          -93.67       0.00193871        -24.7641      0.000315239        -131.231  
                      0.00281856        -98.3137         0.997877       -0.471158      0.000711288          138.55       0.00203144        -23.2078  
0.2089                0.00198001        -25.5531      0.000229893        -164.992          0.99788       -0.492319       0.00363672        -93.7187  
                     0.000934536         117.464       0.00200227        -27.3612       0.00313479        -99.3375         0.997865       -0.493392  
                        0.997907       -0.492134       0.00358841        -93.8492       0.00195552        -25.9188      0.000248098        -152.404  
                      0.00287376        -98.2684         0.997865        -0.49448      0.000805389         132.016       0.00205436        -24.2255  
0.2188                0.00199679        -26.6921      0.000242951         164.961          0.99787       -0.515537       0.00368148        -93.8864  
                      0.00104943         114.648       0.00202247        -28.5655       0.00318852        -99.2602         0.997851       -0.516699  
                        0.997898       -0.515353        0.0036334        -94.0259       0.00197289        -27.0568      0.000232123          178.21  
                      0.00292897        -98.2297         0.997853       -0.517794      0.000907577         126.904        0.0020778         -25.227  
0.2287                0.00201413         -27.815       0.00030916         143.101          0.99786        -0.53875       0.00372628        -94.0523  
                      0.00116622         112.394       0.00204323        -29.7487       0.00324227        -99.1898         0.997838       -0.539999  
                        0.997887       -0.538567       0.00367845        -94.2005        0.0019908        -28.1781      0.000276371          152.07  
                      0.00298419        -98.1972          0.99784       -0.541101       0.00101536         122.854       0.00210175        -26.2127  
0.2386                0.00203201        -28.9216      0.000403147         130.134          0.99785       -0.561958       0.00377112        -94.2163  
                      0.00128437         110.553       0.00206453        -30.9107       0.00329604         -99.126         0.997824       -0.563291  
                        0.997877       -0.561776       0.00372354        -94.3728       0.00200925        -29.2827      0.000359268         135.531  
                      0.00303941        -98.1707         0.997828       -0.564401       0.00112707         119.596       0.00212619        -27.1826  
0.2485                0.00205042        -30.0119      0.000509785         122.313          0.99784       -0.585162         0.003816        -94.3785  
                      0.00140348         109.024       0.00208637        -32.0516       0.00334981        -99.0685          0.99781       -0.586576  
                        0.997866       -0.584979       0.00376867         -94.543       0.00202822        -30.3703      0.000460412         125.693  
                      0.00309463        -98.1496         0.997815       -0.587693       0.00124162         116.935       0.00215112        -28.1369  
0.2584                0.00206934        -31.0859      0.000622618          117.26         0.997829       -0.608361       0.00386093        -94.5391  
                      0.00152332         107.735       0.00210871        -33.1718       0.00340359        -99.0171         0.997796       -0.609854  
                        0.997855       -0.608178       0.00381384        -94.7111       0.00204769        -31.4412      0.000570193         119.513  
                      0.00314986        -98.1339         0.997802       -0.610978       0.00135824         114.728       0.00217653         -29.076  
0.2683                0.00208877        -32.1435      0.000738822         113.776         0.997818       -0.631554        0.0039059         -94.698  
                      0.00164368         106.636       0.00213154        -34.2714       0.00345738        -98.9713         0.997781       -0.633124  
                        0.997843       -0.631372       0.00385906        -94.8773       0.00206766        -32.4951      0.000684485         115.363  
                      0.00320508        -98.1232         0.997788       -0.634255        0.0014764         112.874        0.0022024        -29.9999  
0.2782                0.00210868        -33.1847      0.000857037         111.247         0.997807       -0.654743        0.0039509        -94.8554  
                      0.00176444         105.687       0.00215485        -35.3505       0.00351117         -98.931         0.997766       -0.656386  
                        0.997831        -0.65456       0.00390432        -95.0417       0.00208809        -33.5324      0.000801373         112.412  
                       0.0032603        -98.1172         0.997775       -0.657525       0.00159573         111.297       0.00222873        -30.9089  
0.2881                0.00212907        -34.2096       0.00097654         109.335         0.997795       -0.677926       0.00399595        -95.0112  
                       0.0018855         104.861       0.00217861        -36.4095       0.00356496        -98.8959         0.997751        -0.67964  
                        0.997819       -0.677743       0.00394962        -95.2041         0.002109        -34.5529      0.000919882         110.218  
                      0.00331552        -98.1158         0.997761       -0.680787       0.00171595         109.941       0.00225551        -31.8034  
0.298                 0.00214991        -35.2183       0.00109692         107.842         0.997783       -0.701105       0.00404104        -95.1656  
                      0.00200678         104.135        0.0022028        -37.4488       0.00361875        -98.8659         0.997736       -0.702886  
                        0.997807       -0.700921       0.00399497        -95.3648       0.00213035        -35.5569       0.00103947         108.528  
                      0.00337073        -98.1186         0.997746       -0.704041       0.00183685         108.764       0.00228273        -32.6835  
0.3079                0.00217121        -36.2109       0.00121792         106.646         0.997771       -0.724277       0.00408616        -95.3185  
                      0.00212823         103.492       0.00222742        -38.4684       0.00367253        -98.8405          0.99772       -0.726125  
                        0.997794       -0.724093       0.00404035        -95.5238       0.00215213        -36.5445       0.00115981         107.189  
                      0.00342593        -98.1256         0.997732       -0.727288       0.00195828         107.733       0.00231038        -33.5495  
0.3178                0.00219293        -37.1875       0.00133937         105.667         0.997759       -0.747445       0.00413132        -95.4701  
                      0.00224979          102.92       0.00225243        -39.4689       0.00372631        -98.8198         0.997705       -0.749356  
                        0.997781       -0.747259       0.00408577        -95.6812       0.00217434        -37.5157        0.0012807         106.103  
                      0.00348112        -98.1364         0.997717       -0.750526       0.00208013         106.824       0.00233846        -34.4017  
0.3277                0.00221508        -38.1482       0.00146118         104.851         0.997746       -0.770606       0.00417653        -95.6203  
                      0.00237143         102.406       0.00227784        -40.4506       0.00378008        -98.8034         0.997689       -0.772579  
                        0.997768        -0.77042       0.00413123         -95.837       0.00219695        -38.4709       0.00140201         105.206  
                       0.0035363        -98.1509         0.997702       -0.773757       0.00220229         106.017       0.00236695        -35.2404  
0.3376                0.00223763        -39.0933       0.00158327         104.162         0.997733       -0.793762       0.00422176        -95.7692  
                      0.00249312         101.943       0.00230361        -41.4137       0.00383385        -98.7912         0.997672       -0.795794  
                        0.997754       -0.793574       0.00417673        -95.9912       0.00221996        -39.4102       0.00152365         104.453  
                      0.00359147         -98.169         0.997687       -0.796981        0.0023247         105.295       0.00239586        -36.0659  
0.3475                0.00226058        -40.0229       0.00170558         103.572         0.997719       -0.816913       0.00426704        -95.9169  
                      0.00261484         101.524       0.00232975        -42.3587        0.0038876         -98.783         0.997656       -0.819001  
                         0.99774       -0.816723       0.00422226        -96.1439       0.00224336        -40.3338       0.00164555         103.812  
                      0.00364662        -98.1904         0.997671       -0.820196       0.00244729         104.646       0.00242517        -36.8785  
0.3574                 0.0022839        -40.9371       0.00182807         103.062         0.997705       -0.840057       0.00431235        -96.0634  
                      0.00273657         101.143       0.00235622        -43.2859       0.00394133        -98.7786         0.997639       -0.842199  
                        0.997726       -0.839866       0.00426784        -96.2952       0.00226712         -41.242       0.00176767          103.26  
                      0.00370175         -98.215         0.997655       -0.843403       0.00257003          104.06       0.00245487        -37.6784  
0.3673                 0.0023076        -41.8363       0.00195071         102.617         0.997691       -0.863195        0.0043577        -96.2087  
                      0.00285829         100.795       0.00238302        -44.1957       0.00399506         -98.778         0.997622        -0.86539  
                        0.997712       -0.863003       0.00431345         -96.445       0.00229125        -42.1348       0.00188997          102.78  
                      0.00375687        -98.2428         0.997639       -0.866602       0.00269286         103.528       0.00248497        -38.4661  
0.3772                0.00233166        -42.7206       0.00207348         102.224         0.997677       -0.886328       0.00440308        -96.3529  
                      0.00297999         100.475       0.00241014        -45.0885       0.00404876        -98.7808         0.997604       -0.888572  
                        0.997697       -0.886133        0.0043591        -96.5936       0.00231572        -43.0128       0.00201242          102.36  
                      0.00381198        -98.2734         0.997623       -0.889793       0.00281577         103.043       0.00251545        -39.2417  
0.3871                0.00235606        -43.5902       0.00219637         101.876         0.997662       -0.909454       0.00444849         -96.496  
                      0.00310166         100.181       0.00243755        -45.9646       0.00410245        -98.7871         0.997587       -0.911747  
                        0.997682       -0.909258       0.00440478        -96.7408       0.00234053        -43.8759       0.00213501         101.988  
                      0.00386706        -98.3069         0.997606       -0.912975       0.00293872         102.599        0.0025463        -40.0056  
0.397                 0.00238079        -44.4455       0.00231936         101.566         0.997647       -0.932574       0.00449394        -96.6381  
                       0.0032233         99.9105       0.00246526        -46.8244       0.00415612        -98.7967         0.997569       -0.934913  
                        0.997666       -0.932375       0.00445049        -96.8867       0.00236566        -44.7246       0.00225772         101.658  
                      0.00392212        -98.3431         0.997589        -0.93615       0.00306169         102.192       0.00257753        -40.7581  
0.4069                0.00240586        -45.2866       0.00244244         101.287         0.997632       -0.955688       0.00453943         -96.779  
                      0.00334488         99.6598       0.00249324        -47.6684       0.00420976        -98.8094         0.997551        -0.95807  
                        0.997651       -0.955487       0.00449625        -97.0315       0.00239111        -45.5591       0.00238053         101.362  
                      0.00397716        -98.3818         0.997572       -0.959316       0.00318467         101.816       0.00260913        -41.4995  
0.4168                0.00243123        -46.1138        0.0025656         101.035         0.997617       -0.978795       0.00458494         -96.919  
                      0.00346642         99.4273       0.00252148        -48.4969       0.00426338        -98.8252         0.997532        -0.98122  
                        0.997635       -0.978592       0.00454203         -97.175       0.00241687        -46.3796       0.00250345         101.095  
                      0.00403218        -98.4231         0.997555       -0.982474       0.00330764          101.47       0.00264109        -42.2302  
0.4267                0.00245691        -46.9273       0.00268883         100.807         0.997601         -1.0019       0.00463049        -97.0581  
                       0.0035879         99.2111       0.00254997        -49.3102       0.00431698        -98.8438         0.997514        -1.00436  
                        0.997618        -1.00169       0.00458785        -97.3174       0.00244291        -47.1864       0.00262645         100.855  
                      0.00408717        -98.4667         0.997537        -1.00562       0.00343058         101.149        0.0026734        -42.9503  
0.4366                0.00248288        -47.7275       0.00281214         100.599         0.997584        -1.02499       0.00467607        -97.1961  
                      0.00370931         99.0097       0.00257871        -50.1087       0.00437055        -98.8653         0.997495        -1.02749  
                        0.997602        -1.02478        0.0046337        -97.4586       0.00246924        -47.9799       0.00274954         100.636  
                      0.00414213        -98.5125         0.997519        -1.02876       0.00355349         100.851       0.00270607        -43.6602  
0.4465                0.00250913        -48.5145        0.0029355         100.409         0.997568        -1.04808       0.00472168        -97.3333  
                      0.00383066         98.8217       0.00260768        -50.8929        0.0044241        -98.8895         0.997476        -1.05062  
                        0.997585        -1.04787       0.00467958        -97.5988       0.00249584        -48.7602        0.0028727         100.436  
                      0.00419707        -98.5606         0.997501         -1.0519       0.00367636         100.573       0.00273908        -44.3603  
0.4564                0.00253566        -49.2886       0.00305893         100.235         0.997551        -1.07116       0.00476733        -97.4696  
                      0.00395194         98.6459       0.00263687         -51.663       0.00447761        -98.9163         0.997457        -1.07373  
                        0.997568        -1.07095        0.0047255        -97.7379       0.00252271        -49.5276       0.00299594         100.254  
                      0.00425199        -98.6107         0.997482        -1.07502       0.00379918         100.314       0.00277244        -45.0508  
0.4663                0.00256245        -50.0502       0.00318242         100.074         0.997534        -1.09423         0.004813         -97.605  
                      0.00407316         98.4811       0.00266626        -52.4194        0.0045311        -98.9456         0.997437        -1.09684  
                        0.997551        -1.09402       0.00477145         -97.876       0.00254984        -50.2825       0.00311925         100.086  
                      0.00430687        -98.6629         0.997464        -1.09814       0.00392194         100.072       0.00280614        -45.7319  
0.4762                0.00258949        -50.7994       0.00330596         99.9261         0.997517         -1.1173        0.0048587        -97.7396  
                       0.0041943         98.3265       0.00269586        -53.1625       0.00458455        -98.9773         0.997417        -1.11994  
                        0.997533        -1.11708       0.00481742        -98.0131       0.00257721        -51.0251       0.00324263         99.9313  
                      0.00436172         -98.717         0.997445        -1.12124       0.00404464         99.8459       0.00284017        -46.4041  
0.4861                0.00261679        -51.5365       0.00342955         99.7889         0.997499        -1.14036       0.00490443        -97.8734  
                      0.00431536         98.1813       0.00272565        -53.8926       0.00463797        -99.0114         0.997397        -1.14303  
                        0.997515        -1.14014       0.00486343        -98.1493       0.00260481        -51.7556       0.00336608         99.7885  
                      0.00441655        -98.7729         0.997425        -1.14434       0.00416727         99.6335       0.00287453        -47.0676  
0.496                 0.00264431        -52.2618        0.0035532         99.6616         0.997482        -1.16341       0.00495019        -98.0063  
                      0.00443635         98.0446       0.00275563        -54.6101       0.00469136        -99.0477         0.997377        -1.16611  
                        0.997497        -1.16319       0.00490947        -98.2845       0.00263265        -52.4743       0.00348958         99.6562  
                      0.00447134        -98.8307         0.997406        -1.16743       0.00428983         99.4339       0.00290922        -47.7226  
0.505900032           0.00267207        -52.9755       0.00367689         99.5431         0.997463        -1.18646       0.00499598        -98.1385  
                      0.00455726         97.9159       0.00278578        -55.3152       0.00474471        -99.0862         0.997357        -1.18918  
                        0.997478        -1.18623       0.00495553        -98.4188       0.00266071        -53.1816       0.00361315         99.5333  
                      0.00452609        -98.8901         0.997386        -1.19051       0.00441232         99.2462       0.00294423        -48.3695  
0.5158                0.00270005         -53.678       0.00380064         99.4327         0.997445         -1.2095        0.0050418          -98.27  
                       0.0046781         97.7944       0.00281609        -56.0084       0.00479802        -99.1269         0.997336        -1.21224  
                         0.99746        -1.20926       0.00500163        -98.5522       0.00268898        -53.8776       0.00373678         99.4189  
                      0.00458082        -98.9512         0.997366        -1.21358       0.00453473         99.0693       0.00297956        -49.0086  
0.525699968           0.00272825        -54.3694       0.00392443         99.3295         0.997426        -1.23253       0.00508764        -98.4007  
                      0.00479886         97.6798       0.00284656        -56.6898        0.0048513        -99.1695         0.997315         -1.2353  
                        0.997441        -1.23229       0.00504775        -98.6848       0.00271746        -54.5627       0.00386047         99.3122  
                      0.00463551        -99.0139         0.997346        -1.23664       0.00465706         98.9025       0.00301521        -49.6401  
0.5356                0.00275665          -55.05       0.00404827         99.2328         0.997407        -1.25555       0.00513352        -98.5308  
                      0.00491955         97.5715       0.00287719        -57.3599       0.00490454        -99.2142         0.997294        -1.25834  
                        0.997421        -1.25531       0.00509391        -98.8165       0.00274614         -55.237       0.00398422         99.2124  
                      0.00469016        -99.0782         0.997325         -1.2597       0.00477931          98.745       0.00305118        -50.2643  
0.545499968           0.00278524        -55.7201       0.00417216         99.1421         0.997388        -1.27857       0.00517941        -98.6601  
                      0.00504016          97.469       0.00290795        -58.0189       0.00495774        -99.2607         0.997272        -1.28138  
                        0.997402        -1.27833       0.00514008        -98.9474       0.00277501        -55.9009       0.00410803          99.119  
                      0.00474478        -99.1439         0.997305        -1.28274       0.00490148          98.596       0.00308745        -50.8814  
0.5554                0.00281403        -56.3798       0.00429609         99.0569         0.997368        -1.30157       0.00522534        -98.7888  
                      0.00516069          97.372       0.00293886        -58.6671       0.00501089        -99.3091         0.997251         -1.3044  
                        0.997382        -1.30133       0.00518629        -99.0776       0.00280406        -56.5545       0.00423189         99.0314  
                      0.00479936        -99.2111         0.997284        -1.30578       0.00502357         98.4551       0.00312403        -51.4918  
0.565299968           0.00284301        -57.0295       0.00442007         98.9768         0.997349        -1.32457       0.00527129        -98.9168  
                      0.00528114         97.2801       0.00296989        -59.3048       0.00506401        -99.3593         0.997229        -1.32742  
                        0.997362        -1.32433       0.00523252        -99.2069        0.0028333        -57.1982       0.00435581          98.949  
                       0.0048539        -99.2797         0.997262        -1.32881       0.00514558         98.3217       0.00316092        -52.0958  
0.5752                0.00287216        -57.6694        0.0045441         98.9012         0.997328        -1.34757       0.00531726        -99.0442  
                      0.00540152         97.1931       0.00300105        -59.9323       0.00511708        -99.4112         0.997207        -1.35043  
                        0.997341        -1.34732       0.00527878        -99.3356        0.0028627        -57.8321       0.00447979         98.8715  
                       0.0049084        -99.3495         0.997241        -1.35182        0.0052675         98.1952       0.00319811        -52.6935  
0.585099968           0.00290148        -58.2996       0.00466817         98.8299         0.997308        -1.37055       0.00536326         -99.171  