! TOUCHSTONE file generated by CST MICROWAVE STUDIO
! Date and time: Thu Oct 23 10:57:40 2014
! Project name: Untitled_0.cst
# GHZ S MA R 50
0.1                   0.00555027         9.62091       0.00159518          89.896         0.994519       -0.208771       0.00091457        -90.5343  
                      0.00159518          89.896       0.00554963         9.58448       0.00091457        -90.5342         0.994519        -0.20892  
                        0.994519       -0.208771       0.00091457        -90.5343       0.00555025         9.62107       0.00159517         89.8961  
                      0.00091457        -90.5343         0.994519        -0.20892       0.00159517         89.8961       0.00554964          9.5846  
0.1099                0.00556679         10.5522       0.00175311         89.8858         0.994517       -0.229439        0.0010051        -90.5869  
                      0.00175311         89.8857       0.00556604         10.5124        0.0010051        -90.5868         0.994517         -0.2296  
                        0.994517       -0.229439        0.0010051        -90.5868       0.00556678         10.5524       0.00175311         89.8858  
                       0.0010051        -90.5869         0.994517         -0.2296       0.00175311         89.8858       0.00556605         10.5125  
0.1198                0.00558482         11.4776       0.00191105         89.8755         0.994514       -0.250105       0.00109562        -90.6395  
                      0.00191105         89.8754       0.00558395         11.4345       0.00109562        -90.6394         0.994514        -0.25028  
                        0.994514       -0.250105       0.00109562        -90.6394       0.00558481         11.4778       0.00191105         89.8755  
                      0.00109562        -90.6395         0.994514        -0.25028       0.00191105         89.8755       0.00558395         11.4346  
0.129700008           0.00560435         12.3967         0.002069         89.8652         0.994511       -0.270771       0.00118614        -90.6922  
                        0.002069         89.8651       0.00560333         12.3504       0.00118614        -90.6921         0.994511       -0.270958  
                        0.994511        -0.27077       0.00118614        -90.6921       0.00560433         12.3969         0.002069         89.8652  
                      0.00118614        -90.6922         0.994511       -0.270958       0.00206899         89.8652       0.00560333         12.3504  
0.1396                0.00562534         13.3091       0.00222694         89.8549         0.994508       -0.291435       0.00127665        -90.7449  
                      0.00222694         89.8548       0.00562417         13.2596       0.00127665        -90.7449         0.994508       -0.291636  
                        0.994508       -0.291435       0.00127665        -90.7448       0.00562532         13.3093       0.00222694         89.8549  
                      0.00127665         -90.745         0.994508       -0.291636       0.00222694         89.8549       0.00562418         13.2596  
0.1495                0.00564779         14.2144        0.0023849         89.8446         0.994505       -0.312099       0.00136716        -90.7977  
                      0.00238489         89.8445       0.00564646         14.1617       0.00136716        -90.7976         0.994505       -0.312314  
                        0.994505       -0.312098       0.00136716        -90.7976       0.00564778         14.2146       0.00238489         89.8446  
                      0.00136716        -90.7977         0.994505       -0.312313       0.00238489         89.8446       0.00564646         14.1618  
0.1594                0.00567169         15.1121       0.00254285         89.8343         0.994502       -0.332761       0.00145766        -90.8504  
                      0.00254285         89.8342       0.00567018         15.0564       0.00145766        -90.8504         0.994502        -0.33299  
                        0.994502       -0.332761       0.00145766        -90.8503       0.00567167         15.1123       0.00254285         89.8343  
                      0.00145766        -90.8505         0.994502       -0.332989       0.00254285         89.8342       0.00567018         15.0565  
0.1693                  0.005697         16.0019       0.00270081         89.8239         0.994498       -0.353423       0.00154815        -90.9032  
                      0.00270081         89.8239       0.00569531         15.9433       0.00154815        -90.9032         0.994498       -0.353665  
                        0.994498       -0.353422       0.00154815        -90.9031       0.00569698         16.0022       0.00270081          89.824  
                      0.00154815        -90.9033         0.994498       -0.353665       0.00270081         89.8239       0.00569531         15.9434  
0.1792                0.00572372         16.8835       0.00285877         89.8136         0.994494       -0.374083       0.00163864         -90.956  
                      0.00285877         89.8135       0.00572183         16.8221       0.00163864         -90.956         0.994494       -0.374339  
                        0.994494       -0.374082       0.00163864        -90.9559        0.0057237         16.8838       0.00285877         89.8137  
                      0.00163864        -90.9561         0.994494       -0.374339       0.00285877         89.8136       0.00572182         16.8222  
0.1891                0.00575182         17.7566       0.00301674         89.8033          0.99449       -0.394742       0.00172912        -91.0088  
                      0.00301674         89.8032       0.00574972         17.6924       0.00172912        -91.0088          0.99449       -0.395012  
                         0.99449       -0.394741       0.00172912        -91.0087        0.0057518         17.7569       0.00301674         89.8034  
                      0.00172912        -91.0089          0.99449       -0.395011       0.00301674         89.8033       0.00574971         17.6925  
0.199                 0.00578128         18.6208       0.00317472          89.793         0.994486       -0.415399       0.00181959        -91.0617  
                      0.00317472         89.7929       0.00577897          18.554       0.00181959        -91.0616         0.994486       -0.415684  
                        0.994486       -0.415399       0.00181959        -91.0615       0.00578127         18.6212       0.00317472         89.7931  
                      0.00181959        -91.0617         0.994486       -0.415683       0.00317471          89.793       0.00577896          18.554  
0.2089                0.00581209          19.476        0.0033327         89.7827         0.994482       -0.436056       0.00191005        -91.1145  
                       0.0033327         89.7826       0.00580954         19.4065       0.00191005        -91.1144         0.994482       -0.436354  
                        0.994482       -0.436055       0.00191005        -91.1143       0.00581207         19.4763        0.0033327         89.7827  
                      0.00191005        -91.1145         0.994482       -0.436354       0.00333269         89.7826       0.00580953         19.4066  
0.2188                0.00584421         20.3217       0.00349068         89.7723         0.994477        -0.45671       0.00200051        -91.1673  
                      0.00349068         89.7722       0.00584143         20.2498       0.00200051        -91.1672         0.994477       -0.457024  
                        0.994477        -0.45671       0.00200051        -91.1671       0.00584419         20.3221       0.00349068         89.7724  
                      0.00200051        -91.1673         0.994477       -0.457023       0.00349068         89.7723       0.00584142         20.2499  
0.2287                0.00587763         21.1579       0.00364868          89.762         0.994472       -0.477364       0.00209095        -91.2201  
                      0.00364867         89.7619       0.00587461         21.0836       0.00209095          -91.22         0.994472       -0.477692  
                        0.994472       -0.477363       0.00209095        -91.2199       0.00587762         21.1582       0.00364867         89.7621  
                      0.00209095        -91.2201         0.994472       -0.477691       0.00364867          89.762       0.00587459         21.0837  
0.2386                0.00591233         21.9842       0.00380668         89.7516         0.994467       -0.498016       0.00218139        -91.2729  
                      0.00380667         89.7516       0.00590905         21.9077       0.00218139        -91.2727         0.994467       -0.498358  
                        0.994467       -0.498015       0.00218139        -91.2727       0.00591231         21.9846       0.00380667         89.7517  
                      0.00218139        -91.2729         0.994467       -0.498357       0.00380667         89.7516       0.00590903         21.9077  
0.2485                0.00594829         22.8006       0.00396468         89.7413         0.994462       -0.518666       0.00227182        -91.3256  
                      0.00396468         89.7412       0.00594474         22.7219       0.00227181        -91.3255         0.994462       -0.519023  
                        0.994462       -0.518665       0.00227182        -91.3255       0.00594826          22.801       0.00396468         89.7414  
                      0.00227181        -91.3257         0.994462       -0.519022       0.00396468         89.7413       0.00594472         22.7219  
0.2584                0.00598547         23.6068       0.00412269         89.7309         0.994456       -0.539315       0.00236223        -91.3784  
                      0.00412269         89.7309       0.00598165          23.526       0.00236223        -91.3783         0.994456       -0.539687  
                        0.994456       -0.539314       0.00236223        -91.3782       0.00598545         23.6072       0.00412269         89.7311  
                      0.00236223        -91.3785         0.994456       -0.539686       0.00412269          89.731       0.00598163         23.5261  
0.2683                0.00602386         24.4027       0.00428071         89.7206          0.99445       -0.559962       0.00245264        -91.4312  
                      0.00428071         89.7205       0.00601976           24.32       0.00245263         -91.431          0.99445       -0.560349  
                         0.99445       -0.559961       0.00245264         -91.431       0.00602384         24.4031       0.00428071         89.7207  
                      0.00245264        -91.4312          0.99445       -0.560348       0.00428071         89.7206       0.00601974         24.3201  
0.2782                0.00606343         25.1882       0.00443874         89.7102         0.994444       -0.580608       0.00254303        -91.4839  
                      0.00443874         89.7102       0.00605904         25.1036       0.00254303        -91.4838         0.994444       -0.581009  
                        0.994444       -0.580607       0.00254303        -91.4837       0.00606341         25.1887       0.00443874         89.7103  
                      0.00254303         -91.484         0.994444       -0.581008       0.00443874         89.7103       0.00605902         25.1037  
0.2881                0.00610417         25.9632       0.00459678         89.6999         0.994438       -0.601252       0.00263341        -91.5366  
                      0.00459678         89.6998       0.00609949         25.8768       0.00263341        -91.5365         0.994438       -0.601667  
                        0.994438       -0.601251       0.00263341        -91.5364       0.00610414         25.9636       0.00459677            89.7  
                      0.00263341        -91.5367         0.994438       -0.601666       0.00459677         89.6999       0.00609947         25.8769  
0.298                 0.00614604         26.7275       0.00475482         89.6895         0.994432       -0.621893       0.00272378        -91.5894  
                      0.00475482         89.6895       0.00614106         26.6395       0.00272378        -91.5892         0.994432       -0.622324  
                        0.994432       -0.621892       0.00272378        -91.5891       0.00614602          26.728       0.00475482         89.6896  
                      0.00272378        -91.5894         0.994432       -0.622323       0.00475482         89.6896       0.00614104         26.6396  
0.3079                0.00618903         27.4812       0.00491288         89.6792         0.994425       -0.642534       0.00281414        -91.6421  
                      0.00491287         89.6791       0.00618374         27.3916       0.00281414        -91.6419         0.994425       -0.642979  
                        0.994425       -0.642533       0.00281414        -91.6418         0.006189         27.4818       0.00491287         89.6793  
                      0.00281414        -91.6421         0.994425       -0.642978       0.00491287         89.6792       0.00618371         27.3918  
0.3178                0.00623311         28.2242       0.00507094         89.6688         0.994418       -0.663172       0.00290449        -91.6947  
                      0.00507093         89.6687        0.0062275         28.1331       0.00290448        -91.6945         0.994418       -0.663632  
                        0.994418       -0.663171       0.00290449        -91.6945       0.00623308         28.2248       0.00507093         89.6689  
                      0.00290448        -91.6948         0.994418       -0.663631       0.00507093         89.6688       0.00622748         28.1333  
0.3277                0.00627826         28.9564       0.00522901         89.6584         0.994411       -0.683808       0.00299482        -91.7474  
                      0.00522901         89.6584       0.00627233          28.864       0.00299482        -91.7472         0.994411       -0.684284  
                        0.994411       -0.683807       0.00299482        -91.7472       0.00627823          28.957         0.005229         89.6585  
                      0.00299482        -91.7474         0.994411       -0.684282         0.005229         89.6585       0.00627231         28.8641  
0.3376                0.00632445         29.6779       0.00538709          89.648         0.994404       -0.704442       0.00308514        -91.8001  
                      0.00538709          89.648        0.0063182         29.5841       0.00308514        -91.7998         0.994404       -0.704933  
                        0.994404       -0.704441       0.00308514        -91.7998       0.00632442         29.6785       0.00538708         89.6481  
                      0.00308514        -91.8001         0.994404       -0.704932       0.00538708         89.6481       0.00631817         29.5843  
0.3475                0.00637167         30.3886       0.00554518         89.6376         0.994396       -0.725074       0.00317544        -91.8527  
                      0.00554518         89.6376       0.00636508         30.2936       0.00317544        -91.8524         0.994396        -0.72558  
                        0.994396       -0.725073       0.00317544        -91.8524       0.00637163         30.3892       0.00554517         89.6378  
                      0.00317544        -91.8527         0.994396       -0.725579       0.00554517         89.6377       0.00636506         30.2937  
0.3574                0.00641988         31.0885       0.00570328         89.6272         0.994389       -0.745704       0.00326573        -91.9053  
                      0.00570328         89.6272       0.00641296         30.9924       0.00326573         -91.905         0.994389       -0.746225  
                        0.994389       -0.745703       0.00326573         -91.905       0.00641984         31.0891       0.00570328         89.6274  
                      0.00326573        -91.9053         0.994389       -0.746224       0.00570327         89.6273       0.00641293         30.9926  
0.3673                0.00646907         31.7777       0.00586139         89.6168         0.994381       -0.766332       0.00335601        -91.9579  
                      0.00586139         89.6168       0.00646181         31.6805       0.00335601        -91.9576         0.994381       -0.766868  
                        0.994381       -0.766331       0.00335601        -91.9576       0.00646903         31.7783       0.00586139          89.617  
                      0.00335601        -91.9579         0.994381       -0.766867       0.00586138         89.6169       0.00646178         31.6807  
0.3772                0.00651922         32.4561       0.00601951         89.6064         0.994373       -0.786957       0.00344627        -92.0104  
                      0.00601951         89.6064       0.00651161          32.358       0.00344627        -92.0102         0.994373       -0.787509  
                        0.994373       -0.786957       0.00344627        -92.0101       0.00651917         32.4568       0.00601951         89.6066  
                      0.00344627        -92.0105         0.994373       -0.787508       0.00601951         89.6065       0.00651158         32.3582  
0.3871                0.00657029          33.124       0.00617765          89.596         0.994364       -0.807581       0.00353652         -92.063  
                      0.00617764          89.596       0.00656234          33.025       0.00353652        -92.0627         0.994364       -0.808147  
                        0.994364        -0.80758       0.00353652        -92.0627       0.00657025         33.1247       0.00617764         89.5962  
                      0.00353652         -92.063         0.994364       -0.808146       0.00617764         89.5961       0.00656231         33.0252  
0.397                 0.00662228         33.7812       0.00633579         89.5856         0.994356       -0.828202       0.00362675        -92.1155  
                      0.00633579         89.5856       0.00661398         33.6814       0.00362675        -92.1152         0.994356       -0.828783  
                        0.994356       -0.828201       0.00362675        -92.1152       0.00662223         33.7819       0.00633578         89.5857  
                      0.00362675        -92.1155         0.994356       -0.828782       0.00633578         89.5857       0.00661395         33.6816  
0.4069                0.00667516         34.4279       0.00649395         89.5752         0.994347       -0.848821       0.00371696         -92.168  
                      0.00649395         89.5751        0.0066665         34.3274       0.00371696        -92.1677         0.994347       -0.849417  
                        0.994347        -0.84882       0.00371696        -92.1677       0.00667511         34.4287       0.00649394         89.5753  
                      0.00371696         -92.168         0.994347       -0.849416       0.00649394         89.5753       0.00666647         34.3276  
0.4168                 0.0067289         35.0641       0.00665212         89.5647         0.994338       -0.869437       0.00380716        -92.2205  
                      0.00665211         89.5647       0.00671988         34.9629       0.00380716        -92.2202         0.994338       -0.870048  
                        0.994338       -0.869436       0.00380716        -92.2202       0.00672885         35.0649       0.00665211         89.5649  
                      0.00380716        -92.2205         0.994338       -0.870047       0.00665211         89.5649       0.00671985         34.9632  
0.4267                0.00678349           35.69        0.0068103         89.5543         0.994329        -0.89005       0.00389734        -92.2729  
                      0.00681029         89.5543       0.00677411         35.5882       0.00389734        -92.2726         0.994329       -0.890677  
                        0.994329        -0.89005       0.00389734        -92.2726       0.00678344         35.6908       0.00681029         89.5544  
                      0.00389734        -92.2729         0.994329       -0.890676       0.00681029         89.5544       0.00677408         35.5885  
0.4366                0.00683891         36.3056       0.00696849         89.5438          0.99432       -0.910662       0.00398751        -92.3253  
                      0.00696849         89.5438       0.00682917         36.2033        0.0039875         -92.325         0.994319       -0.911303  
                         0.99432       -0.910661       0.00398751         -92.325       0.00683886         36.3065       0.00696848          89.544  
                       0.0039875        -92.3254         0.994319       -0.911302       0.00696848          89.544       0.00682913         36.2036  
0.4465                0.00689514          36.911       0.00712669         89.5334          0.99431        -0.93127       0.00407765        -92.3778  
                      0.00712669         89.5334       0.00688502         36.8083       0.00407765        -92.3774          0.99431       -0.931927  
                         0.99431        -0.93127       0.00407765        -92.3774       0.00689508         36.9119       0.00712669         89.5336  
                      0.00407765        -92.3778          0.99431       -0.931926       0.00712669         89.5335       0.00688499         36.8086  
0.4564                0.00695215         37.5064       0.00728491         89.5229           0.9943       -0.951876       0.00416778        -92.4301  
                      0.00728491         89.5229       0.00694166         37.4033       0.00416778        -92.4298           0.9943       -0.952548  
                          0.9943       -0.951876       0.00416778        -92.4298       0.00695209         37.5073       0.00728491         89.5231  
                      0.00416778        -92.4301           0.9943       -0.952547       0.00728491         89.5231       0.00694163         37.4035  
0.4663                0.00700993         38.0918       0.00744315         89.5124          0.99429        -0.97248       0.00425789        -92.4825  
                      0.00744315         89.5124       0.00699907         37.9884       0.00425789        -92.4822          0.99429       -0.973167  
                         0.99429       -0.972479       0.00425789        -92.4821       0.00700987         38.0928       0.00744314         89.5126  
                      0.00425789        -92.4825          0.99429       -0.973166       0.00744314         89.5126       0.00699904         37.9886  
0.4762                0.00706846         38.6674       0.00760139          89.502          0.99428       -0.993081       0.00434798        -92.5348  
                      0.00760139          89.502       0.00705723         38.5637       0.00434798        -92.5345          0.99428       -0.993782  
                         0.99428        -0.99308       0.00434798        -92.5345        0.0070684         38.6684       0.00760138         89.5021  
                      0.00434798        -92.5348          0.99428       -0.993781       0.00760138         89.5021       0.00705719         38.5639  
0.4861                0.00712772         39.2332       0.00775965         89.4915          0.99427        -1.01368       0.00443806        -92.5871  
                      0.00775965         89.4915       0.00711611         39.1293       0.00443806        -92.5868         0.994269        -1.01439  
                         0.99427        -1.01368       0.00443806        -92.5868       0.00712765         39.2343       0.00775964         89.4917  
                      0.00443806        -92.5871         0.994269        -1.01439       0.00775964         89.4917       0.00711608         39.1296  
0.496                 0.00718769         39.7895       0.00791793          89.481         0.994259        -1.03427       0.00452811        -92.6394  
                      0.00791793          89.481        0.0071757         39.6854       0.00452811         -92.639         0.994259          -1.035  
                        0.994259        -1.03427       0.00452811         -92.639       0.00718762         39.7906       0.00791792         89.4812  
                      0.00452811        -92.6394         0.994259          -1.035       0.00791792         89.4812       0.00717567         39.6857  
0.505900032           0.00724836         40.3363       0.00807621         89.4705         0.994249        -1.05487       0.00461814        -92.6916  
                      0.00807622         89.4705       0.00723598         40.2321       0.00461814        -92.6913         0.994248        -1.05561  
                        0.994249        -1.05487       0.00461814        -92.6913       0.00724828         40.3374       0.00807621         89.4707  
                      0.00461814        -92.6916         0.994248        -1.05561       0.00807621         89.4707       0.00723595         40.2324  
0.5158                 0.0073097         40.8738       0.00823452         89.4599         0.994238        -1.07545       0.00470816        -92.7439  
                      0.00823452           89.46       0.00729694         40.7695       0.00470816        -92.7435         0.994237        -1.07622  
                        0.994238        -1.07545       0.00470816        -92.7435       0.00730962          40.875       0.00823451         89.4601  
                      0.00470816        -92.7439         0.994237        -1.07622       0.00823451         89.4602       0.00729691         40.7698  
0.525699968            0.0073717         41.4021       0.00839284         89.4494         0.994226        -1.09604       0.00479815        -92.7961  
                      0.00839284         89.4494       0.00735856         41.2978       0.00479815        -92.7957         0.994226        -1.09682  
                        0.994226        -1.09604       0.00479815        -92.7957       0.00737162         41.4033       0.00839283         89.4496  
                      0.00479815        -92.7961         0.994226        -1.09682       0.00839283         89.4496       0.00735853         41.2981  
0.5356                0.00743435         41.9213       0.00855117         89.4389         0.994215        -1.11662       0.00488813        -92.8482  
                      0.00855118         89.4389       0.00742082         41.8171       0.00488813        -92.8478         0.994214        -1.11742  
                        0.994215        -1.11662       0.00488813        -92.8478       0.00743427         41.9226       0.00855116         89.4391  
                      0.00488813        -92.8482         0.994214        -1.11741       0.00855117         89.4391       0.00742079         41.8174  
0.545499968           0.00749762         42.4317       0.00870953         89.4283         0.994203         -1.1372       0.00497808        -92.9004  
                      0.00870953         89.4283       0.00748371         42.3274       0.00497808           -92.9         0.994203        -1.13801  
                        0.994203         -1.1372       0.00497808           -92.9       0.00749754         42.4329       0.00870951         89.4285  
                      0.00497808        -92.9004         0.994203        -1.13801       0.00870952         89.4286       0.00748368         42.3278  
0.5554                 0.0075615         42.9332       0.00886789         89.4178         0.994191        -1.15778       0.00506801        -92.9525  
                       0.0088679         89.4178       0.00754721         42.8291       0.00506801        -92.9521         0.994191         -1.1586  
                        0.994191        -1.15778       0.00506801        -92.9521       0.00756142         42.9345       0.00886788          89.418  
                      0.00506801        -92.9525         0.994191         -1.1586       0.00886789          89.418       0.00754717         42.8294  
0.565299968           0.00762599         43.4261       0.00902627         89.4072         0.994179        -1.17836       0.00515792        -93.0046  
                      0.00902628         89.4072        0.0076113         43.3221       0.00515792        -93.0041         0.994179        -1.17919  
                        0.994179        -1.17836       0.00515792        -93.0041        0.0076259         43.4275       0.00902626         89.4074  
                      0.00515792        -93.0046         0.994179        -1.17919       0.00902627         89.4074       0.00761126         43.3225  
0.5752                0.00769105         43.9105       0.00918468         89.3966         0.994167        -1.19893       0.00524781        -93.0566  
                      0.00918468         89.3966       0.00767597         43.8067       0.00524781        -93.0562         0.994166        -1.19978  
                        0.994167        -1.19893       0.00524781        -93.0562       0.00769096         43.9119       0.00918466         89.3969  
                      0.00524781        -93.0566         0.994166        -1.19978       0.00918467         89.3969       0.00767594         43.8071  
0.585099968           0.00775667         44.3866       0.00934309         89.3861         0.994155        -1.21949       0.00533767        -93.1086  