! TOUCHSTONE file generated by CST MICROWAVE STUDIO
! Date and time: Wed Oct 15 12:58:54 2014
! Project name: Untitled_1.cst
# GHZ S MA R 50
0.1                   0.00189399        -5.20145       0.00105463         90.4323         0.998085       -0.231947      0.000688801        -91.2144  
                      0.00105463         90.4323       0.00189431        -5.31331      0.000688801        -91.2139         0.998085       -0.232126  
                        0.998086       -0.231946      0.000688801        -91.2139       0.00189393        -5.20199       0.00105463         90.4323  
                     0.000688801        -91.2144         0.998085       -0.232127       0.00105463         90.4323       0.00189429        -5.31377  
0.1099                0.00189736        -5.81356       0.00115934         90.5015         0.998078       -0.254633      0.000756559        -91.3223  
                      0.00115934         90.5015       0.00189773        -5.93581      0.000756557        -91.3214         0.998078       -0.254831  
                        0.998078       -0.254633      0.000756558        -91.3213       0.00189729        -5.81446       0.00115934         90.5018  
                     0.000756555        -91.3222         0.998078       -0.254831       0.00115934         90.5016       0.00189771          -5.936  
0.1198                0.00190077        -6.42497       0.00126408         90.5656          0.99807       -0.277315      0.000824307          -91.43  
                      0.00126408         90.5655       0.00190121        -6.55756      0.000824304        -91.4288          0.99807        -0.27753  
                         0.99807       -0.277315      0.000824304        -91.4286       0.00190069        -6.42624       0.00126408          90.566  
                     0.000824299        -91.4298          0.99807       -0.277531       0.00126408         90.5657       0.00190118        -6.55747  
0.129700008           0.00190422        -7.03569       0.00136885         90.6256         0.998062       -0.299992      0.000892044        -91.5375  
                      0.00136886         90.6255       0.00190473        -7.17853      0.000892039        -91.5361         0.998062       -0.300225  
                        0.998062       -0.299992       0.00089204        -91.5358       0.00190413        -7.03733       0.00136886         90.6263  
                     0.000892031        -91.5373         0.998062       -0.300226       0.00136886         90.6258        0.0019047        -7.17819  
0.1396                0.00190771        -7.64571       0.00147367         90.6825         0.998053       -0.322665      0.000959768        -91.6449  
                      0.00147368         90.6823       0.00190829        -7.79874      0.000959762        -91.6433         0.998053       -0.322915  
                        0.998053       -0.322665      0.000959763        -91.6429       0.00190761         -7.6477       0.00147367         90.6833  
                     0.000959752        -91.6446         0.998053       -0.322917       0.00147367         90.6828       0.00190826        -7.79814  
0.1495                0.00191124        -8.25502       0.00157852         90.7369         0.998045       -0.345332       0.00102748        -91.7523  
                      0.00157853         90.7366        0.0019119        -8.41817       0.00102747        -91.7505         0.998045       -0.345601  
                        0.998045       -0.345332       0.00102747          -91.75       0.00191112        -8.25738       0.00157852         90.7377  
                      0.00102746        -91.7519         0.998045       -0.345603       0.00157852         90.7371       0.00191186        -8.41731  
0.1594                0.00191481        -8.86363       0.00168341         90.7891         0.998036       -0.367995       0.00109518        -91.8595  
                      0.00168342         90.7888       0.00191556         -9.0368       0.00109517        -91.8575         0.998036       -0.368281  
                        0.998036       -0.367995       0.00109517         -91.857       0.00191468        -8.86634       0.00168341         90.7901  
                      0.00109515        -91.8591         0.998036       -0.368284       0.00168341         90.7894       0.00191552         -9.0357  
0.1693                0.00191842        -9.47152       0.00178834         90.8396         0.998026       -0.390653       0.00116286        -91.9667  
                      0.00178836         90.8392       0.00191926        -9.65464       0.00116285        -91.9645         0.998026       -0.390957  
                        0.998027       -0.390653       0.00116285         -91.964       0.00191828        -9.47458       0.00178835         90.8407  
                      0.00116283        -91.9662         0.998026        -0.39096       0.00178834         90.8399       0.00191922        -9.65329  
0.1792                0.00192206        -10.0787       0.00189331         90.8886         0.998017       -0.413305       0.00123053        -92.0738  
                      0.00189333         90.8883       0.00192301        -10.2717       0.00123052        -92.0715         0.998017       -0.413627  
                        0.998017       -0.413306       0.00123052        -92.0709       0.00192191        -10.0821       0.00189332         90.8898  
                       0.0012305        -92.0733         0.998017       -0.413631       0.00189332         90.8889       0.00192296        -10.2701  
0.1891                0.00192575        -10.6851       0.00199833         90.9364         0.998007       -0.435953       0.00129818        -92.1808  
                      0.00199835          90.936       0.00192681        -10.8879       0.00129817        -92.1784         0.998007       -0.436293  
                        0.998007       -0.435954       0.00129817        -92.1778       0.00192559        -10.6889       0.00199834         90.9376  
                      0.00129815        -92.1803         0.998007       -0.436297       0.00199834         90.9367       0.00192676        -10.8861  
0.199                 0.00192947        -11.2909        0.0021034         90.9831         0.997997       -0.458595       0.00136582        -92.2878  
                      0.00210342         90.9827       0.00193065        -11.5033        0.0013658        -92.2853         0.997997       -0.458953  
                        0.997997       -0.458597        0.0013658        -92.2846        0.0019293         -11.295       0.00210341         90.9843  
                      0.00136578        -92.2873         0.997997       -0.458957        0.0021034         90.9834        0.0019306        -11.5012  
0.2089                0.00193324        -11.8958       0.00220851         91.0288         0.997987       -0.481233       0.00143343        -92.3947  
                      0.00220853         91.0284       0.00193453        -12.1179       0.00143342        -92.3921         0.997987       -0.481609  
                        0.997987       -0.481235       0.00143342        -92.3914       0.00193305        -11.9003       0.00220852         91.0301  
                      0.00143339        -92.3942         0.997987       -0.481613       0.00220851         91.0292       0.00193448        -12.1156  
0.2188                0.00193704        -12.5001       0.00231367         91.0738         0.997976       -0.503865       0.00150103        -92.5016  
                      0.00231369         91.0733       0.00193847        -12.7316       0.00150101        -92.4989         0.997976       -0.504259  
                        0.997976       -0.503867       0.00150102        -92.4982       0.00193684        -12.5049       0.00231368         91.0751  
                      0.00150099         -92.501         0.997976       -0.504263       0.00231367         91.0742       0.00193841        -12.7291  
0.2287                0.00194089        -13.1036       0.00241888          91.118         0.997966       -0.526492       0.00156861        -92.6084  
                       0.0024189         91.1175       0.00194244        -13.3445       0.00156859        -92.6056         0.997966       -0.526903  
                        0.997966       -0.526494        0.0015686        -92.6049       0.00194068        -13.1088       0.00241889         91.1193  
                      0.00156856        -92.6078         0.997966       -0.526908       0.00241888         91.1184       0.00194239        -13.3418  
0.2386                0.00194477        -13.7063       0.00252414         91.1615         0.997954       -0.549113       0.00163617        -92.7152  
                      0.00252416          91.161       0.00194647        -13.9566       0.00163615        -92.7123         0.997955       -0.549542  
                        0.997955       -0.549116       0.00163616        -92.7116       0.00194455        -13.7119       0.00252415         91.1629  
                      0.00163612        -92.7146         0.997954       -0.549548       0.00252414         91.1619       0.00194641        -13.9536  
0.2485                0.00194869        -14.3083       0.00262945         91.2045         0.997943       -0.571729       0.00170371         -92.822  
                      0.00262948          91.204       0.00195054        -14.5677       0.00170369         -92.819         0.997943       -0.572176  
                        0.997943       -0.571732        0.0017037        -92.8183       0.00194846        -14.3142       0.00262947         91.2059  
                      0.00170366        -92.8213         0.997943       -0.572182       0.00262946         91.2049       0.00195048        -14.5646  
0.2584                0.00195265        -14.9096       0.00273482         91.2469         0.997932       -0.594339       0.00177123        -92.9287  
                      0.00273485         91.2464       0.00195465        -15.1781       0.00177121        -92.9256         0.997932       -0.594804  
                        0.997932       -0.594342       0.00177122        -92.9249        0.0019524        -14.9158       0.00273484         91.2483  
                      0.00177117         -92.928         0.997932        -0.59481       0.00273483         91.2473       0.00195459        -15.1747  
0.2683                0.00195665        -15.5101       0.00284025         91.2888          0.99792       -0.616943       0.00183873        -93.0354  
                      0.00284028         91.2883       0.00195881        -15.7875        0.0018387        -93.0322          0.99792       -0.617427  
                         0.99792       -0.616947       0.00183871        -93.0315       0.00195639        -15.5166       0.00284026         91.2903  
                      0.00183867        -93.0347          0.99792       -0.617433       0.00284025         91.2892       0.00195875        -15.7839  
0.2782                0.00196069        -16.1098       0.00294573         91.3303         0.997908       -0.639542        0.0019062         -93.142  
                      0.00294576         91.3298       0.00196302        -16.3961       0.00190618        -93.1388         0.997908       -0.640044  
                        0.997908       -0.639546       0.00190618         -93.138       0.00196042        -16.1167       0.00294575         91.3318  
                      0.00190614        -93.1413         0.997908        -0.64005       0.00294574         91.3307       0.00196296        -16.3923  
0.2881                0.00196477        -16.7087       0.00305127         91.3714         0.997895       -0.662136       0.00197365        -93.2486  
                      0.00305131         91.3708       0.00196727        -17.0038       0.00197363        -93.2453         0.997895       -0.662655  
                        0.997895        -0.66214       0.00197363        -93.2445       0.00196449         -16.716       0.00305129         91.3729  
                      0.00197359        -93.2479         0.997895       -0.662662       0.00305128         91.3718       0.00196721        -16.9998  
0.298                 0.00196889        -17.3069       0.00315687         91.4121         0.997883       -0.684723       0.00204108        -93.3551  
                      0.00315691         91.4115       0.00197156        -17.6106       0.00204105        -93.3518         0.997883       -0.685261  
                        0.997883       -0.684727       0.00204106         -93.351       0.00196859        -17.3146       0.00315689         91.4136  
                      0.00204101        -93.3544         0.997883       -0.685268       0.00315688         91.4125        0.0019715        -17.6064  
0.3079                0.00197305        -17.9043       0.00326254         91.4524          0.99787       -0.707305       0.00210848        -93.4616  
                      0.00326257         91.4518        0.0019759        -18.2166       0.00210845        -93.4582          0.99787        -0.70786  
                         0.99787       -0.707309       0.00210846        -93.4575       0.00197274        -17.9123       0.00326256         91.4539  
                      0.00210841        -93.4609          0.99787       -0.707868       0.00326255         91.4528       0.00197584        -18.2121  
0.3178                0.00197724        -18.5009       0.00336826         91.4924         0.997857        -0.72988       0.00217585        -93.5681  
                       0.0033683         91.4918       0.00198029        -18.8216       0.00217582        -93.5646         0.997857       -0.730454  
                        0.997857       -0.729885       0.00217583        -93.5639       0.00197692        -18.5093       0.00336829         91.4939  
                      0.00217578        -93.5674         0.997857       -0.730461       0.00336828         91.4928       0.00198023        -18.8169  
0.3277                0.00198148        -19.0968       0.00347406          91.532         0.997843        -0.75245        0.0022432        -93.6745  
                       0.0034741         91.5315       0.00198472        -19.4257       0.00224317         -93.671         0.997843       -0.753041  
                        0.997843       -0.752455       0.00224318        -93.6702       0.00198114        -19.1055       0.00347408         91.5335  
                      0.00224312        -93.6738         0.997843       -0.753049       0.00347407         91.5325       0.00198466        -19.4208  
0.3376                0.00198575        -19.6918       0.00357991         91.5714          0.99783       -0.775013       0.00231052        -93.7809  
                      0.00357996         91.5708       0.00198919        -20.0289       0.00231049        -93.7773          0.99783       -0.775623  
                         0.99783       -0.775019        0.0023105        -93.7766        0.0019854        -19.7009       0.00357994         91.5729  
                      0.00231044        -93.7802          0.99783       -0.775631       0.00357993         91.5718       0.00198914        -20.0238  
0.3475                0.00199007        -20.2861       0.00368584         91.6105         0.997816       -0.797571       0.00237782        -93.8873  
                      0.00368588         91.6099       0.00199371        -20.6311       0.00237778        -93.8836         0.997816       -0.798199  
                        0.997816       -0.797576       0.00237779        -93.8829       0.00198971        -20.2955       0.00368587          91.612  
                      0.00237773        -93.8865         0.997816       -0.798207       0.00368586         91.6109       0.00199366        -20.6258  
0.3574                0.00199442        -20.8795       0.00379184         91.6493         0.997802       -0.820122       0.00244508        -93.9936  
                      0.00379188         91.6487       0.00199828        -21.2325       0.00244505        -93.9899         0.997802       -0.820768  
                        0.997802       -0.820128       0.00244506        -93.9891       0.00199405        -20.8893       0.00379187         91.6508  
                      0.00244499        -93.9928         0.997802       -0.820776       0.00379185         91.6497       0.00199823         -21.227  
0.3673                0.00199882        -21.4721        0.0038979         91.6878         0.997787       -0.842667       0.00251231        -94.0999  
                      0.00389795         91.6872       0.00200289        -21.8329       0.00251228        -94.0961         0.997787       -0.843331  
                        0.997787       -0.842673       0.00251229        -94.0953       0.00199843        -21.4823       0.00389793         91.6893  
                      0.00251223        -94.0991         0.997787        -0.84334       0.00389792         91.6882       0.00200285        -21.8272  
0.3772                0.00200325         -22.064       0.00400404         91.7261         0.997773       -0.865206       0.00257952        -94.2061  
                      0.00400409         91.7255       0.00200755        -22.4324       0.00257948        -94.2023         0.997773       -0.865888  
                        0.997773       -0.865212       0.00257949        -94.2015       0.00200284        -22.0745       0.00400407         91.7276  
                      0.00257943        -94.2053         0.997772       -0.865897       0.00400406         91.7265        0.0020075        -22.4264  
0.3871                0.00200772         -22.655       0.00411025         91.7641         0.997758       -0.887738       0.00264669        -94.3123  
                       0.0041103         91.7635       0.00201225        -23.0309       0.00264665        -94.3084         0.997758       -0.888438  
                        0.997758       -0.887744       0.00264666        -94.3076        0.0020073        -22.6659       0.00411029         91.7656  
                       0.0026466        -94.3115         0.997758       -0.888447       0.00411027         91.7645       0.00201221        -23.0247  
0.397                 0.00201223        -23.2452       0.00421654         91.8019         0.997743       -0.910264       0.00271383        -94.4184  
                      0.00421659         91.8013       0.00201699        -23.6285       0.00271379        -94.4145         0.997743       -0.910982  
                        0.997743       -0.910271       0.00271381        -94.4137        0.0020118        -23.2565       0.00421657         91.8034  
                      0.00271374        -94.4176         0.997743       -0.910992       0.00421655         91.8023       0.00201696        -23.6221  
0.4069                0.00201678        -23.8346        0.0043229         91.8395         0.997727       -0.932784       0.00278094        -94.5245  
                      0.00432295         91.8389       0.00202178        -24.2251        0.0027809        -94.5206         0.997727        -0.93352  
                        0.997727        -0.93279       0.00278091        -94.5198       0.00201634        -23.8462       0.00432294          91.841  
                      0.00278084        -94.5237         0.997727       -0.933529       0.00432292         91.8399       0.00202175        -24.2185  
0.4168                0.00202137        -24.4231       0.00442934         91.8768         0.997712       -0.955296       0.00284802        -94.6305  
                      0.00442939         91.8762       0.00202662        -24.8208       0.00284798        -94.6266         0.997712       -0.956051  
                        0.997712       -0.955303       0.00284799        -94.6258       0.00202091        -24.4352       0.00442938         91.8783  
                      0.00284792        -94.6298         0.997711        -0.95606       0.00442936         91.8772       0.00202659        -24.8139  
0.4267                  0.002026        -25.0108       0.00453586         91.9139         0.997696       -0.977803       0.00291506        -94.7365  
                      0.00453591         91.9133        0.0020315        -25.4155       0.00291502        -94.7325         0.997696       -0.978575  
                        0.997696        -0.97781       0.00291503        -94.7318       0.00202553        -25.0233        0.0045359         91.9154  
                      0.00291496        -94.7358         0.997696       -0.978585       0.00453588         91.9143       0.00203147        -25.4084  
0.4366                0.00203067        -25.5977       0.00464246         91.9508          0.99768         -1.0003       0.00298206        -94.8425  
                      0.00464251         91.9502       0.00203642        -26.0092       0.00298202        -94.8384          0.99768        -1.00109  
                         0.99768        -1.00031       0.00298204        -94.8377       0.00203019        -25.6106        0.0046425         91.9523  
                      0.00298196        -94.8417          0.99768         -1.0011       0.00464247         91.9512        0.0020364        -26.0019  
0.4465                0.00203537        -26.1838       0.00474914         91.9875         0.997663         -1.0228       0.00304903        -94.9484  
                      0.00474919         91.9869       0.00204139        -26.6019       0.00304899        -94.9443         0.997663         -1.0236  
                        0.997663         -1.0228       0.00304901        -94.9435       0.00203488         -26.197       0.00474918          91.989  
                      0.00304893        -94.9476         0.997663        -1.02361       0.00474916         91.9879       0.00204138        -26.5944  
0.4564                0.00204012         -26.769        0.0048559          92.024         0.997647        -1.04528       0.00311597        -95.0543  
                      0.00485595         92.0234        0.0020464        -27.1937       0.00311593        -95.0501         0.997647        -1.04611  
                        0.997647        -1.04529       0.00311594        -95.0494       0.00203961        -26.7826       0.00485594         92.0254  
                      0.00311586        -95.0535         0.997647        -1.04612       0.00485592         92.0244        0.0020464         -27.186  
0.4663                0.00204491        -27.3534       0.00496274         92.0603          0.99763        -1.06776       0.00318287        -95.1601  
                       0.0049628         92.0597       0.00205146        -27.7845       0.00318282        -95.1559          0.99763        -1.06861  
                         0.99763        -1.06777       0.00318284        -95.1551       0.00204439        -27.3674       0.00496279         92.0617  
                      0.00318276        -95.1593          0.99763        -1.06862       0.00496277         92.0606       0.00205146        -27.7765  
0.4762                0.00204973        -27.9369       0.00506968         92.0963         0.997613        -1.09023       0.00324973        -95.2659  
                      0.00506973         92.0957       0.00205657        -28.3743       0.00324968        -95.2616         0.997613         -1.0911  
                        0.997613        -1.09024        0.0032497        -95.2609        0.0020492        -27.9513       0.00506972         92.0977  
                      0.00324962         -95.265         0.997613        -1.09111        0.0050697         92.0967       0.00205657        -28.3661  
0.4861                 0.0020546        -28.5195        0.0051767         92.1322         0.997596         -1.1127       0.00331655        -95.3716  
                      0.00517675         92.1316       0.00206171         -28.963       0.00331651        -95.3673         0.997596        -1.11358  
                        0.997596        -1.11271       0.00331652        -95.3665       0.00205405        -28.5344       0.00517674         92.1336  
                      0.00331644        -95.3708         0.997595        -1.11359       0.00517672         92.1325       0.00206172        -28.9546  
0.496                 0.00205951        -29.1013        0.0052838         92.1679         0.997578        -1.13516       0.00338333        -95.4772  
                      0.00528386         92.1673       0.00206691        -29.5508       0.00338329        -95.4729         0.997578        -1.13606  
                        0.997578        -1.13517        0.0033833        -95.4722       0.00205895        -29.1166       0.00528385         92.1692  
                      0.00338322        -95.4764         0.997578        -1.13607       0.00528382         92.1682       0.00206692        -29.5422  
0.505900032           0.00206445        -29.6823         0.005391         92.2033          0.99756        -1.15761       0.00345008        -95.5828  
                      0.00539105         92.2027       0.00207214        -30.1376       0.00345003        -95.5785          0.99756        -1.15853  
                         0.99756        -1.15762       0.00345005        -95.5777       0.00206388         -29.698       0.00539105         92.2047  
                      0.00344996         -95.582          0.99756        -1.15854       0.00539102         92.2037       0.00207216        -30.1287  
0.5158                0.00206944        -30.2623       0.00549829         92.2386         0.997542        -1.18005       0.00351678        -95.6884  
                      0.00549834          92.238       0.00207742        -30.7233       0.00351673         -95.684         0.997542        -1.18099  
                        0.997542        -1.18006       0.00351675        -95.6833       0.00206885        -30.2785       0.00549834         92.2399  
                      0.00351667        -95.6876         0.997542          -1.181       0.00549831         92.2389       0.00207745        -30.7142  
0.525699968           0.00207446        -30.8415       0.00560566         92.2737         0.997524        -1.20249       0.00358344        -95.7939  
                      0.00560572         92.2731       0.00208275        -31.3081       0.00358339        -95.7894         0.997524        -1.20344  
                        0.997524         -1.2025       0.00358341        -95.7887       0.00207387        -30.8581       0.00560572          92.275  
                      0.00358333        -95.7931         0.997524        -1.20346       0.00560569          92.274       0.00208279        -31.2987  
0.5356                0.00207953        -31.4199       0.00571313         92.3086         0.997506        -1.22492       0.00365006        -95.8994  
                      0.00571319          92.308       0.00208812        -31.8918       0.00365001        -95.8949         0.997506        -1.22589  
                        0.997506        -1.22493       0.00365003        -95.8941       0.00207892        -31.4369       0.00571319         92.3099  
                      0.00364995        -95.8985         0.997505         -1.2259       0.00571316         92.3089       0.00208816        -31.8821  
0.545499968           0.00208463        -31.9973        0.0058207         92.3433         0.997487        -1.24734       0.00371664        -96.0047  
                      0.00582076         92.3427       0.00209354        -32.4745       0.00371659        -96.0002         0.997487        -1.24833  
                        0.997487        -1.24735       0.00371661        -95.9995       0.00208401        -32.0148       0.00582076         92.3445  
                      0.00371652        -96.0039         0.997487        -1.24834       0.00582072         92.3435       0.00209359        -32.4646  
0.5554                0.00208978        -32.5739       0.00592836         92.3778         0.997468        -1.26976       0.00378318        -96.1101  
                      0.00592842         92.3772         0.002099        -33.0561       0.00378312        -96.1055         0.997468        -1.27077  
                        0.997468        -1.26977       0.00378314        -96.1048       0.00208914        -32.5918       0.00592842          92.379  
                      0.00378306        -96.1093         0.997468        -1.27078       0.00592838          92.378       0.00209905         -33.046  
0.565299968           0.00209496        -33.1495       0.00603612         92.4121         0.997449        -1.29217       0.00384967        -96.2154  
                      0.00603618         92.4115        0.0021045        -33.6367       0.00384961        -96.2108         0.997449        -1.29319  
                        0.997449        -1.29218       0.00384963        -96.2101       0.00209431        -33.1679       0.00603618         92.4133  
                      0.00384954        -96.2145         0.997448         -1.2932       0.00603614         92.4123       0.00210456        -33.6263  
0.5752                0.00210019        -33.7243       0.00614398         92.4462         0.997429        -1.31457       0.00391611        -96.3206  
                      0.00614403         92.4456       0.00211005        -34.2163       0.00391606         -96.316         0.997429        -1.31561  
                        0.997429        -1.31458       0.00391608        -96.3153       0.00209953        -33.7431       0.00614403         92.4474  
                      0.00391599        -96.3198         0.997429        -1.31562         0.006144         92.4464       0.00211012        -34.2056  
0.585099968           0.00210545        -34.2982       0.00625193         92.4801          0.99741        -1.33696       0.00398251        -96.4258  