! TOUCHSTONE file generated by CST MICROWAVE STUDIO
! Date and time: Wed Oct 15 14:02:16 2014
! Project name: Untitled_1.cst
# GHZ S MA R 50
0.1                   0.00186924        -5.20183       0.00106369         90.8275         0.998061       -0.231433      0.000680283        -91.8595  
                      0.00106369         90.8275       0.00186876        -5.25115      0.000680284        -91.8597          0.99806       -0.231396  
                        0.998061       -0.231432      0.000680283        -91.8597       0.00186918        -5.20242       0.00106369         90.8277  
                     0.000680284        -91.8595          0.99806       -0.231396       0.00106369         90.8277       0.00186875        -5.25102  
0.1099                0.00186388        -5.86534        0.0011742         91.0786         0.998046       -0.254296       0.00074313        -92.2479  
                      0.00117419         91.0783       0.00186345        -5.91865      0.000743094         -92.247         0.998045       -0.254266  
                        0.998046       -0.254304      0.000743127        -92.2478        0.0018638        -5.86122        0.0011742         91.0787  
                     0.000743124        -92.2479         0.998045       -0.254265       0.00117418         91.0783       0.00186347         -5.9188  
0.1198                 0.0018581        -6.53008        0.0012848          91.292          0.99803       -0.277141      0.000805951        -92.5938  
                      0.00128479         91.2915       0.00185774        -6.58739      0.000805879        -92.5922         0.998029       -0.277117  
                        0.998029       -0.277158      0.000805945        -92.5936       0.00185801        -6.52132       0.00128479          91.292  
                     0.000805938        -92.5939         0.998029       -0.277116       0.00128475         91.2914       0.00185779        -6.58782  
0.129700008           0.00185192        -7.19634        0.0013955         91.4767         0.998013       -0.299968      0.000868741        -92.9066  
                      0.00139548          91.476       0.00185163        -7.25768      0.000868634        -92.9043         0.998012        -0.29995  
                        0.998012       -0.299994      0.000868733        -92.9064       0.00185182        -7.18302       0.00139548         91.4765  
                     0.000868722        -92.9068         0.998012       -0.299948       0.00139542         91.4758       0.00185171        -7.25836  
0.1396                0.00184533        -7.86445       0.00150629         91.6389         0.997995       -0.322777      0.000931496         -93.193  
                      0.00150626          91.638       0.00184511        -7.92982      0.000931355        -93.1901         0.997994       -0.322765  
                        0.997995       -0.322811      0.000931485        -93.1927       0.00184521        -7.84661       0.00150626         91.6386  
                     0.000931471        -93.1933         0.997994       -0.322762       0.00150618         91.6377       0.00184522        -7.93076  
0.1495                0.00183833        -8.53469       0.00161717         91.7832         0.997977       -0.345567      0.000994212        -93.4581  
                      0.00161713         91.7822       0.00183818        -8.60412      0.000994037        -93.4546         0.997976        -0.34556  
                        0.997976       -0.345609      0.000994198        -93.4577       0.00183819        -8.51241       0.00161714         91.7829  
                     0.000994181        -93.4584         0.997976       -0.345557       0.00161704         91.7819       0.00183832        -8.60531  
0.1594                0.00183093        -9.20741       0.00172815          91.913         0.997957       -0.368338       0.00105689        -93.7057  
                       0.0017281         91.9119       0.00183086        -9.28091       0.00105668        -93.7017         0.997957       -0.368336  
                        0.997957       -0.368388       0.00105687        -93.7052       0.00183078        -9.18075       0.00172811         91.9127  
                      0.00105685         -93.706         0.997957       -0.368333         0.001728         91.9116       0.00183103        -9.28233  
0.1693                0.00182312        -9.88293       0.00183923          92.031         0.997937       -0.391089       0.00111951        -93.9387  
                      0.00183917         92.0297       0.00182314        -9.96051       0.00111927        -93.9342         0.997937       -0.391092  
                        0.997937       -0.391147       0.00111949        -93.9381       0.00182296        -9.85193       0.00183918         92.0306  
                      0.00111947         -93.939         0.997936       -0.391088       0.00183905         92.0295       0.00182333        -9.96217  
0.1792                0.00181492        -10.5616        0.0019504          92.139         0.997917        -0.41382       0.00118209        -94.1595  
                      0.00195034         92.1377       0.00181502        -10.6433       0.00118182        -94.1546         0.997916       -0.413828  
                        0.997916       -0.413885       0.00118207        -94.1589       0.00181474        -10.5263       0.00195035         92.1387  
                      0.00118204        -94.1598         0.997915       -0.413823        0.0019502         92.1375       0.00181524        -10.6451  
0.1891                0.00180632        -11.2437       0.00206168         92.2387         0.997895       -0.436531       0.00124462        -94.3699  
                      0.00206161         92.2374       0.00180652        -11.3295       0.00124431        -94.3647         0.997894       -0.436543  
                        0.997894       -0.436602        0.0012446        -94.3693       0.00180612        -11.2042       0.00206163         92.2384  
                      0.00124457        -94.3703         0.997894       -0.436537       0.00206145         92.2372       0.00180676        -11.3316  
0.199                 0.00179733        -11.9297       0.00217307         92.3314         0.997873       -0.459221       0.00130709        -94.5716  
                      0.00217299           92.33       0.00179762        -12.0196       0.00130676         -94.566         0.997872       -0.459237  
                        0.997872       -0.459299       0.00130707        -94.5709       0.00179711         -11.886       0.00217301         92.3311  
                      0.00130703        -94.5719         0.997871       -0.459231       0.00217281         92.3298       0.00179789        -12.0219  
0.2089                0.00178795        -12.6198       0.00228456          92.418         0.997849       -0.481889       0.00136951        -94.7656  
                      0.00228447         92.4166       0.00178833        -12.7139       0.00136914        -94.7596         0.997848       -0.481909  
                        0.997848       -0.481974       0.00136948        -94.7649        0.0017877         -12.572       0.00228449         92.4177  
                      0.00136944        -94.7659         0.997848       -0.481902       0.00228428         92.4165       0.00178863        -12.7164  
0.2188                0.00177817        -13.3145       0.00239616         92.4994         0.997826       -0.504536       0.00143187         -94.953  
                      0.00239607         92.4979       0.00177867        -13.4128       0.00143147        -94.9467         0.997824        -0.50456  
                        0.997824       -0.504626       0.00143184        -94.9522       0.00177791        -13.2626       0.00239608         92.4991  
                       0.0014318        -94.9533         0.997824       -0.504552       0.00239585         92.4979       0.00177898        -13.4155  
0.2287                0.00176802        -14.0142       0.00250787         92.5762         0.997801       -0.527161       0.00149416        -95.1346  
                      0.00250777         92.5747       0.00176862        -14.1167       0.00149374         -95.128           0.9978       -0.527188  
                          0.9978       -0.527257       0.00149413        -95.1339       0.00176774        -13.9583       0.00250779         92.5759  
                      0.00149409        -95.1349         0.997799        -0.52718       0.00250754         92.5747       0.00176896        -14.1196  
0.2386                0.00175749        -14.7193        0.0026197          92.649         0.997776       -0.549763       0.00155639        -95.3112  
                      0.00261959         92.6475        0.0017582         -14.826       0.00155594        -95.3043         0.997774       -0.549794  
                        0.997774       -0.549865       0.00155636        -95.3104       0.00175718        -14.6594       0.00261961         92.6487  
                      0.00155631        -95.3115         0.997774       -0.549785       0.00261935         92.6476       0.00175856        -14.8291  
0.2485                0.00174658        -15.4302       0.00273165         92.7182         0.997749       -0.572342       0.00161856        -95.4833  
                      0.00273153         92.7168       0.00174741         -15.541       0.00161807        -95.4761         0.997748       -0.572376  
                        0.997748        -0.57245       0.00161852        -95.4825       0.00174625        -15.3662       0.00273155          92.718  
                      0.00161847        -95.4836         0.997748       -0.572367       0.00273127         92.7169       0.00174779        -15.5443  
0.2584                 0.0017353        -16.1472       0.00284371         92.7843         0.997722       -0.594899       0.00168065        -95.6514  
                      0.00284359         92.7829       0.00173624        -16.2623       0.00168014         -95.644         0.997721       -0.594936  
                        0.997721       -0.595012       0.00168061        -95.6506       0.00173495        -16.0794       0.00284361         92.7841  
                      0.00168056        -95.6517         0.997721       -0.594925       0.00284331          92.783       0.00173665        -16.2658  
0.2683                0.00172365         -16.871        0.0029559         92.8476         0.997695       -0.617432       0.00174267         -95.816  
                      0.00295577         92.8461       0.00172472        -16.9903       0.00174213        -95.8084         0.997693       -0.617471  
                        0.997693        -0.61755       0.00174263        -95.8152       0.00172328        -16.7992        0.0029558         92.8474  
                      0.00174257        -95.8163         0.997693        -0.61746       0.00295548         92.8464       0.00172514        -16.9939  
0.2782                0.00171164        -17.6018       0.00306822         92.9083         0.997666       -0.639941       0.00180462        -95.9774  
                      0.00306808         92.9069       0.00171284        -17.7254       0.00180405        -95.9696         0.997665       -0.639983  
                        0.997664       -0.640064       0.00180457        -95.9766       0.00171124        -17.5262       0.00306811         92.9082  
                      0.00180451        -95.9777         0.997665       -0.639971       0.00306777         92.9072       0.00171328        -17.7292  
0.2881                0.00169928        -18.3403       0.00318066         92.9668         0.997637       -0.662426       0.00186649         -96.136  
                      0.00318052         92.9653       0.00170061        -18.4682       0.00186589        -96.1279         0.997636        -0.66247  
                        0.997635       -0.662553       0.00186644        -96.1351       0.00169885        -18.2608       0.00318055         92.9667  
                      0.00186638        -96.1362         0.997636       -0.662458       0.00318019         92.9658       0.00170106        -18.4722  
0.298                 0.00168656         -19.087       0.00329324         93.0232         0.997608       -0.684887       0.00192827         -96.292  
                      0.00329309         93.0217       0.00168803        -19.2191       0.00192766        -96.2837         0.997606       -0.684933  
                        0.997605       -0.685018       0.00192823        -96.2911       0.00168611        -19.0037       0.00329312         93.0231  
                      0.00192816        -96.2922         0.997606        -0.68492       0.00329275         93.0222        0.0016885        -19.2232  
0.3079                0.00167349        -19.8423       0.00340595         93.0776         0.997577       -0.707323       0.00198998        -96.4457  
                      0.00340579         93.0762        0.0016751        -19.9786       0.00198934        -96.4371         0.997576       -0.707371  
                        0.997575       -0.707458       0.00198993        -96.4448       0.00167301        -19.7552       0.00340582         93.0776  
                      0.00198986        -96.4458         0.997575       -0.707357       0.00340543         93.0768       0.00167559        -19.9829  
0.3178                0.00166009        -20.6068        0.0035188         93.1304         0.997546       -0.729733        0.0020516        -96.5972  
                      0.00351863          93.129       0.00166185        -20.7474       0.00205094        -96.5885         0.997544       -0.729783  
                        0.997544       -0.729872       0.00205156        -96.5963       0.00165958        -20.5159       0.00351867         93.1304  
                      0.00205148        -96.5973         0.997544       -0.729769       0.00351826         93.1296       0.00166235        -20.7518  
0.3277                0.00164636        -21.3811       0.00363179         93.1815         0.997514       -0.752119       0.00211314        -96.7468  
                      0.00363161         93.1801       0.00164826         -21.526       0.00211245        -96.7378         0.997513        -0.75217  
                        0.997512       -0.752261       0.00211309        -96.7459       0.00164582        -21.2865       0.00363165         93.1815  
                      0.00211301        -96.7469         0.997512       -0.752155       0.00363123         93.1808       0.00164878        -21.5306  
0.3376                0.00163229        -22.1658       0.00374492         93.2311         0.997482       -0.774478       0.00217459        -96.8946  
                      0.00374473         93.2297       0.00163435        -22.3149       0.00217388        -96.8855          0.99748       -0.774531  
                        0.997479       -0.774624       0.00217453        -96.8937       0.00163172        -22.0675       0.00374477         93.2312  
                      0.00217445        -96.8947         0.997479       -0.774515       0.00374434         93.2306       0.00163489        -22.3197  
0.3475                0.00161791        -22.9616       0.00385819         93.2794         0.997448       -0.796812       0.00223594        -97.0408  
                        0.003858          93.278       0.00162013        -23.1149       0.00223521        -97.0315         0.997447       -0.796866  
                        0.997446       -0.796961       0.00223589        -97.0399       0.00161731        -22.8595       0.00385804         93.2795  
                       0.0022358        -97.0408         0.997446        -0.79685       0.00385759         93.2789       0.00162068        -23.1198  
0.3574                0.00160322         -23.769       0.00397162         93.3263         0.997414        -0.81912        0.0022972        -97.1854  
                      0.00397142          93.325        0.0016056        -23.9266       0.00229645        -97.1759         0.997413       -0.819174  
                        0.997412       -0.819272       0.00229715        -97.1845       0.00160259        -23.6633       0.00397146         93.3265  
                      0.00229706        -97.1855         0.997412       -0.819157         0.003971          93.326       0.00160616        -23.9316  
0.3673                0.00158822        -24.5889       0.00408519         93.3721          0.99738         -0.8414       0.00235836        -97.3287  
                      0.00408499         93.3708       0.00159077        -24.7506       0.00235759         -97.319         0.997378       -0.841456  
                        0.997377       -0.841555       0.00235831        -97.3278       0.00158756        -24.4795       0.00408503         93.3723  
                      0.00235822        -97.3287         0.997378       -0.841438       0.00408455         93.3718       0.00159134        -24.7558  
0.3772                0.00157293        -25.4219       0.00419892         93.4167         0.997345       -0.863655       0.00241943        -97.4706  
                      0.00419871         93.4154       0.00157565        -25.5878       0.00241864        -97.4608         0.997343       -0.863711  
                        0.997342       -0.863812       0.00241937        -97.4698       0.00157223        -25.3089       0.00419876         93.4169  
                      0.00241928        -97.4706         0.997343       -0.863693       0.00419826         93.4166       0.00157624        -25.5931  
0.3871                0.00155736        -26.2689       0.00431281         93.4602         0.997309       -0.885882       0.00248039        -97.6114  
                      0.00431259          93.459       0.00156025        -26.4388       0.00247958        -97.6014         0.997307       -0.885938  
                        0.997306       -0.886042       0.00248033        -97.6105       0.00155662        -26.1522       0.00431264         93.4605  
                      0.00248023        -97.6114         0.997307       -0.885919       0.00431213         93.4602       0.00156085        -26.4442  
0.397                  0.0015415        -27.1306       0.00442686         93.5027         0.997272       -0.908081       0.00254125         -97.751  
                      0.00442663         93.5015       0.00154458        -27.3045       0.00254042        -97.7409         0.997271       -0.908138  
                        0.997269       -0.908244       0.00254119        -97.7501       0.00154073        -27.0103       0.00442668         93.5031  
                      0.00254109        -97.7509          0.99727       -0.908119       0.00442616         93.5028       0.00154519        -27.3101  
0.4069                0.00152538        -28.0078       0.00454106         93.5443         0.997235       -0.930253         0.002602        -97.8895  
                      0.00454083         93.5431       0.00152865        -28.1857       0.00260115        -97.8793         0.997234       -0.930311  
                        0.997232       -0.930418       0.00260194        -97.8887       0.00152457        -27.8839       0.00454088         93.5447  
                      0.00260183        -97.8895         0.997233       -0.930291       0.00454035         93.5445       0.00152926        -28.1914  
0.4168                0.00150901        -28.9015       0.00465544         93.5849         0.997198       -0.952398       0.00266264        -98.0271  
                       0.0046552         93.5837       0.00151247        -29.0833       0.00266178        -98.0167         0.997196       -0.952455  
                        0.997194       -0.952564       0.00266258        -98.0262       0.00150815         -28.774       0.00465525         93.5853  
                      0.00266247         -98.027         0.997195       -0.952434        0.0046547         93.5853       0.00151309        -29.0891  
0.4267                0.00149239        -29.8127       0.00476998         93.6246         0.997159       -0.974514       0.00272317        -98.1637  
                      0.00476973         93.6235       0.00149605        -29.9982       0.00272229        -98.1531         0.997158       -0.974571  
                        0.997156       -0.974682       0.00272311        -98.1628       0.00149149        -29.6816       0.00476979         93.6251  
                        0.002723        -98.1636         0.997157        -0.97455       0.00476922         93.6251       0.00149668        -30.0041  
0.4366                0.00147554        -30.7422       0.00488469         93.6635          0.99712       -0.996602       0.00278359        -98.2994  
                      0.00488443         93.6625        0.0014794        -30.9314       0.00278269        -98.2887         0.997119       -0.996659  
                        0.997117       -0.996772       0.00278352        -98.2985        0.0014746        -30.6076       0.00488449         93.6641  
                      0.00278341        -98.2992         0.997118       -0.996637       0.00488392         93.6641       0.00148004        -30.9375  
0.4465                0.00145847        -31.6913       0.00499957         93.7016         0.997081        -1.01866       0.00284389        -98.4343  
                      0.00499931         93.7006       0.00146254         -31.884       0.00284298        -98.4235         0.997079        -1.01872  
                        0.997077        -1.01883       0.00284382        -98.4334       0.00145749        -31.5531       0.00499937         93.7022  
                      0.00284371        -98.4341         0.997079         -1.0187       0.00499878         93.7023       0.00146318        -31.8902  
0.4564                 0.0014412        -32.6608       0.00511463         93.7389         0.997041        -1.04069       0.00290407        -98.5683  
                      0.00511436         93.7379       0.00144547        -32.8569       0.00290314        -98.5574         0.997039        -1.04075  
                        0.997037        -1.04086         0.002904        -98.5675       0.00144017        -32.5192       0.00511443         93.7396  
                      0.00290388        -98.5681         0.997038        -1.04073       0.00511382         93.7398       0.00144613        -32.8632  
0.4663                0.00142374        -33.6522       0.00522986         93.7755            0.997        -1.06269       0.00296413        -98.7016  
                      0.00522959         93.7745       0.00142823        -33.8514       0.00296319        -98.6906         0.996998        -1.06275  
                        0.996996        -1.06287       0.00296406        -98.7008       0.00142265         -33.507       0.00522966         93.7762  
                      0.00296394        -98.7014         0.996998        -1.06273       0.00522904         93.7764       0.00142888        -33.8579  
0.4762                 0.0014061        -34.6664       0.00534528         93.8113         0.996959        -1.08467       0.00302406        -98.8342  
                        0.005345         93.8103       0.00141081        -34.8687       0.00302311         -98.823         0.996957        -1.08472  
                        0.996955        -1.08484         0.003024        -98.8333       0.00140497        -34.5178       0.00534507          93.812  
                      0.00302387        -98.8339         0.996956         -1.0847       0.00534444         93.8123       0.00141147        -34.8752  
0.4861                 0.0013883        -35.7049       0.00546088         93.8464         0.996917        -1.10661       0.00308387         -98.966  
                       0.0054606         93.8455       0.00139324        -35.9099       0.00308291        -98.9547         0.996915        -1.10666  
                        0.996913        -1.10679       0.00308381        -98.9652       0.00138712        -35.5528       0.00546066         93.8472  
                      0.00308368        -98.9657         0.996915        -1.10664       0.00546003         93.8475       0.00139391        -35.9166  
0.496                 0.00137037        -36.7689       0.00557666         93.8808         0.996874        -1.12852       0.00314356        -99.0972  
                      0.00557637         93.8799       0.00137553        -36.9764       0.00314258        -99.0858         0.996873        -1.12858  
                        0.996871         -1.1287       0.00314349        -99.0963       0.00136913        -36.6134       0.00557644         93.8816  
                      0.00314336        -99.0968         0.996872        -1.12855        0.0055758          93.882       0.00137621        -36.9832  
0.505900032           0.00135231        -37.8599       0.00569263         93.9145         0.996831        -1.15041       0.00320311        -99.2277  
                      0.00569234         93.9136       0.00135771        -38.0697       0.00320212        -99.2162          0.99683        -1.15046  
                        0.996828        -1.15059       0.00320304        -99.2269       0.00135101        -37.7011       0.00569241         93.9154  
                      0.00320291        -99.2273         0.996829        -1.15044       0.00569176         93.9159       0.00135839        -38.0765  
0.5158                0.00133415        -38.9794        0.0058088         93.9475         0.996788        -1.17226       0.00326252        -99.3575  
                       0.0058085         93.9467       0.00133979         -39.191       0.00326153        -99.3459         0.996786        -1.17232  
                        0.996784        -1.17244       0.00326246        -99.3567        0.0013328        -38.8172       0.00580857         93.9484  
                      0.00326232        -99.3571         0.996786        -1.17229       0.00580791          93.949       0.00134047        -39.1979  
0.525699968           0.00131591        -40.1288       0.00592515         93.9799         0.996744        -1.19409       0.00332181        -99.4868  
                      0.00592485         93.9791        0.0013218         -40.342        0.0033208        -99.4751         0.996742        -1.19414  
                         0.99674        -1.19427       0.00332174         -99.486        0.0013145        -39.9635       0.00592492         93.9809  
                       0.0033216        -99.4863         0.996742        -1.19411       0.00592425         93.9815       0.00132248         -40.349  
0.5356                0.00129762        -41.3099        0.0060417         94.0117         0.996699        -1.21588       0.00338095        -99.6154  
                      0.00604139         94.0109       0.00130375        -41.5242       0.00337994        -99.6036         0.996698        -1.21593  
                        0.996695        -1.21606       0.00338088        -99.6146       0.00129614        -41.1414       0.00604147         94.0127  
                      0.00338074         -99.615         0.996697         -1.2159       0.00604078         94.0134       0.00130444        -41.5313  
0.545499968           0.00127929        -42.5244       0.00615845         94.0428         0.996654        -1.23765       0.00343996        -99.7435  
                      0.00615813         94.0421       0.00128568        -42.7392       0.00343893        -99.7316         0.996653        -1.23769  
                         0.99665        -1.23782       0.00343989        -99.7427       0.00127775        -42.3527       0.00615821         94.0438  
                      0.00343974         -99.743         0.996652        -1.23767       0.00615752         94.0446       0.00128637        -42.7464  
0.5554                0.00126095        -43.7739       0.00627539         94.0733         0.996609        -1.25938       0.00349882        -99.8709  
                      0.00627507         94.0726        0.0012676        -43.9888       0.00349779         -99.859         0.996607        -1.25943  
                        0.996604        -1.25956       0.00349875        -99.8702       0.00125934        -43.5992       0.00627516         94.0744  
                       0.0034986        -99.8704         0.996606         -1.2594       0.00627445         94.0752       0.00126829         -43.996  
0.565299968           0.00124264        -45.0603       0.00639254         94.1031         0.996562        -1.28108       0.00355753        -99.9978  
                      0.00639222         94.1025       0.00124955        -45.2747        0.0035565        -99.9858         0.996561        -1.28113  
                        0.996558        -1.28126       0.00355746        -99.9971       0.00124096        -44.8827        0.0063923         94.1043  
                      0.00355732        -99.9973          0.99656         -1.2811       0.00639159         94.1052       0.00125024         -45.282  
0.5752                0.00122438        -46.3856       0.00650989         94.1324         0.996516        -1.30276        0.0036161        -100.124  
                      0.00650956         94.1318       0.00123155        -46.5987       0.00361506        -100.112         0.996514         -1.3028  
                        0.996511        -1.30293       0.00361603        -100.123       0.00122263        -46.2052       0.00650965         94.1336  
                      0.00361588        -100.124         0.996514        -1.30277       0.00650893         94.1346       0.00123225        -46.6061  
0.585099968            0.0012062        -47.7516       0.00662745         94.1611         0.996469         -1.3244       0.00367452         -100.25  