! TOUCHSTONE file generated by CST MICROWAVE STUDIO
! Date and time: Thu Oct 16 14:29:28 2014
! Project name: Untitled_1.cst
# GHZ S MA R 50
0.1                   0.00194608        -14.7985       0.00101697         90.5926         0.998082       -0.240147      0.000646021        -91.6103  
                      0.00101697         90.5926       0.00194611        -14.7959      0.000646021         -91.611         0.998082       -0.240115  
                        0.998082       -0.240147      0.000646021         -91.611        0.0019461        -14.7987       0.00101697         90.5925  
                     0.000646021        -91.6103         0.998082       -0.240115       0.00101697         90.5925       0.00194608        -14.7957  
0.1099                0.00195852        -16.2024       0.00111762         90.6519         0.998075       -0.263883      0.000709612        -91.7659  
                      0.00111762         90.6519       0.00195856        -16.1998      0.000709614        -91.7669         0.998075       -0.263848  
                        0.998075       -0.263883      0.000709614        -91.7669       0.00195854        -16.2027       0.00111762         90.6518  
                     0.000709612        -91.7659         0.998075       -0.263848       0.00111762         90.6518       0.00195851        -16.1994  
0.1198                0.00197198         -17.593       0.00121829         90.7122         0.998068       -0.287605      0.000773176        -91.9194  
                      0.00121829         90.7122       0.00197202        -17.5903       0.00077318        -91.9207         0.998068       -0.287567  
                        0.998068       -0.287606       0.00077318        -91.9207       0.00197199        -17.5934       0.00121829         90.7121  
                     0.000773175        -91.9194         0.998068       -0.287568       0.00121829         90.7121       0.00197196        -17.5897  
0.129700008           0.00198642        -18.9691       0.00131899         90.7733          0.99806       -0.311314      0.000836711        -92.0714  
                      0.00131899         90.7733       0.00198647        -18.9663      0.000836717        -92.0729          0.99806       -0.311273  
                         0.99806       -0.311314      0.000836717         -92.073       0.00198643        -18.9696       0.00131899         90.7732  
                     0.000836711        -92.0714          0.99806       -0.311273       0.00131899         90.7732        0.0019864        -18.9657  
0.1396                0.00200184        -20.3298       0.00141972          90.835         0.998052       -0.335008      0.000900217        -92.2221  
                      0.00141972          90.835        0.0020019        -20.3268      0.000900223        -92.2239         0.998052       -0.334964  
                        0.998052       -0.335009      0.000900223        -92.2239       0.00200185        -20.3303       0.00141972         90.8349  
                     0.000900217        -92.2221         0.998052       -0.334965       0.00141972         90.8349       0.00200181        -20.3261  
0.1495                0.00201821        -21.6742       0.00152049         90.8971         0.998043       -0.358689      0.000963691        -92.3718  
                      0.00152049         90.8972       0.00201827        -21.6709      0.000963698        -92.3737         0.998043       -0.358642  
                        0.998043        -0.35869      0.000963698        -92.3737       0.00201822        -21.6747       0.00152048          90.897  
                     0.000963691        -92.3717         0.998043       -0.358643       0.00152048         90.8971       0.00201818        -21.6703  
0.1594                0.00203551        -23.0014       0.00162129         90.9596         0.998034       -0.382357       0.00102713        -92.5205  
                      0.00162129         90.9597       0.00203558        -22.9979       0.00102714        -92.5226         0.998035       -0.382306  
                        0.998034       -0.382358       0.00102714        -92.5226       0.00203552        -23.0019       0.00162129         90.9595  
                      0.00102713        -92.5204         0.998035       -0.382308       0.00162129         90.9596       0.00203547        -22.9973  
0.1693                0.00205371        -24.3107       0.00172214         91.0224         0.998025       -0.406011       0.00109054        -92.6684  
                      0.00172214         91.0225       0.00205379         -24.307       0.00109055        -92.6706         0.998025       -0.405957  
                        0.998025       -0.406012       0.00109055        -92.6706       0.00205372        -24.3112       0.00172213         91.0223  
                      0.00109054        -92.6684         0.998025       -0.405959       0.00172213         91.0223       0.00205368        -24.3064  
0.1792                 0.0020728        -25.6016       0.00182303         91.0854         0.998015       -0.429652       0.00115391        -92.8156  
                      0.00182303         91.0854        0.0020729        -25.5976       0.00115392        -92.8179         0.998015       -0.429595  
                        0.998015       -0.429653       0.00115392         -92.818       0.00207282         -25.602       0.00182302         91.0853  
                      0.00115391        -92.8156         0.998015       -0.429597       0.00182302         91.0853       0.00207277         -25.597  
0.1891                0.00209276        -26.8734       0.00192397         91.1485         0.998005        -0.45328       0.00121724        -92.9622  
                      0.00192397         91.1486       0.00209286        -26.8691       0.00121725        -92.9646         0.998005        -0.45322  
                        0.998005       -0.453281       0.00121725        -92.9646       0.00209278        -26.8738       0.00192397         91.1484  
                      0.00121724        -92.9621         0.998005       -0.453222       0.00192397         91.1484       0.00209272        -26.8686  
0.199                 0.00211355        -28.1258       0.00202497         91.2118         0.997995       -0.476895       0.00128054        -93.1081  
                      0.00202497         91.2118       0.00211366        -28.1211       0.00128055        -93.1106         0.997995       -0.476832  
                        0.997995       -0.476896       0.00128055        -93.1107       0.00211357        -28.1261       0.00202496         91.2117  
                      0.00128054        -93.1081         0.997995       -0.476834       0.00202496         91.2117       0.00211352        -28.1208  
0.2089                0.00213515        -29.3583       0.00212602          91.275         0.997984       -0.500498        0.0013438        -93.2535  
                      0.00212602         91.2751       0.00213528        -29.3532        0.0013438        -93.2561         0.997984       -0.500432  
                        0.997984       -0.500499        0.0013438        -93.2561       0.00213519        -29.3585       0.00212602         91.2749  
                      0.00134379        -93.2535         0.997984       -0.500434       0.00212602         91.2749       0.00213513        -29.3531  
0.2188                0.00215755        -30.5706       0.00222713         91.3384         0.997972       -0.524088       0.00140701        -93.3984  
                      0.00222714         91.3384        0.0021577        -30.5652       0.00140701         -93.401         0.997973       -0.524019  
                        0.997972       -0.524089       0.00140701        -93.4011        0.0021576        -30.5707       0.00222713         91.3382  
                      0.00140701        -93.3984         0.997973       -0.524021       0.00222713         91.3382       0.00215753        -30.5652  
0.2287                0.00218072        -31.7627       0.00232831         91.4016         0.997961       -0.547665       0.00147018        -93.5428  
                      0.00232832         91.4017       0.00218088        -31.7569       0.00147018        -93.5455         0.997961       -0.547593  
                        0.997961       -0.547666       0.00147018        -93.5455       0.00218077        -31.7626       0.00232831         91.4015  
                      0.00147018        -93.5427         0.997961       -0.547595       0.00232831         91.4015        0.0021807         -31.757  
0.2386                0.00220464        -32.9342       0.00242956         91.4649         0.997949       -0.571231       0.00153331        -93.6867  
                      0.00242957         91.4649       0.00220481         -32.928       0.00153331        -93.6894         0.997949       -0.571156  
                        0.997949       -0.571232       0.00153331        -93.6894        0.0022047         -32.934       0.00242956         91.4647  
                      0.00153331        -93.6866         0.997949       -0.571158       0.00242956         91.4648       0.00220462        -32.9284  
0.2485                0.00222928        -34.0851       0.00253088         91.5281         0.997936       -0.594784        0.0015964        -93.8301  
                      0.00253088         91.5281       0.00222946        -34.0786        0.0015964        -93.8328         0.997937       -0.594706  
                        0.997936       -0.594785        0.0015964        -93.8328       0.00222934        -34.0848       0.00253088         91.5279  
                       0.0015964        -93.8301         0.997937       -0.594708       0.00253087         91.5279       0.00222926        -34.0791  
0.2584                0.00225461        -35.2155       0.00263227         91.5911         0.997924       -0.618326       0.00165944        -93.9731  
                      0.00263228         91.5911       0.00225481        -35.2085       0.00165944        -93.9758         0.997924       -0.618245  
                        0.997924       -0.618327       0.00165944        -93.9758       0.00225469         -35.215       0.00263227          91.591  
                      0.00165944         -93.973         0.997924       -0.618246       0.00263227          91.591        0.0022546        -35.2093  
0.2683                0.00228063        -36.3253       0.00273374         91.6541         0.997911       -0.641856       0.00172243        -94.1156  
                      0.00273375         91.6541       0.00228083        -36.3179       0.00172243        -94.1183         0.997911       -0.641772  
                        0.997911       -0.641857       0.00172243        -94.1183       0.00228071        -36.3247       0.00273374         91.6539  
                      0.00172243        -94.1155         0.997911       -0.641773       0.00273374         91.6539       0.00228062        -36.3189  
0.2782                 0.0023073        -37.4146        0.0028353         91.7169         0.997897       -0.665374       0.00178538        -94.2577  
                       0.0028353         91.7169       0.00230752        -37.4067       0.00178538        -94.2604         0.997897       -0.665287  
                        0.997897       -0.665375       0.00178538        -94.2604       0.00230739        -37.4138       0.00283529         91.7167  
                      0.00178538        -94.2576         0.997897       -0.665288       0.00283529         91.7167        0.0023073        -37.4081  
0.2881                 0.0023346        -38.4835       0.00293693         91.7796         0.997884       -0.688881       0.00184828        -94.3993  
                      0.00293694         91.7796       0.00233483        -38.4753       0.00184828        -94.4021         0.997884        -0.68879  
                        0.997884       -0.688882       0.00184828        -94.4021        0.0023347        -38.4825       0.00293693         91.7794  
                      0.00184828        -94.3993         0.997884       -0.688792       0.00293693         91.7794        0.0023346        -38.4768  
0.298                 0.00236251        -39.5323       0.00303866         91.8421          0.99787       -0.712376       0.00191113        -94.5405  
                      0.00303866         91.8421       0.00236276        -39.5236       0.00191113        -94.5433          0.99787       -0.712283  
                         0.99787       -0.712377       0.00191113        -94.5433       0.00236263        -39.5311       0.00303865         91.8418  
                      0.00191113        -94.5405          0.99787       -0.712284       0.00303865         91.8419       0.00236252        -39.5254  
0.3079                0.00239101         -40.561       0.00314047         91.9044         0.997855        -0.73586       0.00197394        -94.6814  
                      0.00314047         91.9044       0.00239127        -40.5519       0.00197394        -94.6841         0.997856       -0.735764  
                        0.997855       -0.735861       0.00197394        -94.6841       0.00239114        -40.5597       0.00314047         91.9041  
                      0.00197394        -94.6813         0.997856       -0.735765       0.00314046         91.9041       0.00239103         -40.554  
0.3178                0.00242008          -41.57       0.00324238         91.9665         0.997841       -0.759333        0.0020367        -94.8218  
                      0.00324238         91.9665       0.00242036        -41.5605       0.00203669        -94.8245         0.997841       -0.759234  
                        0.997841       -0.759334       0.00203669        -94.8246       0.00242022        -41.5685       0.00324237         91.9662  
                       0.0020367        -94.8217         0.997841       -0.759235       0.00324237         91.9662       0.00242011        -41.5629  
0.3277                 0.0024497        -42.5596       0.00334438         92.0284         0.997826       -0.782795       0.00209941        -94.9618  
                      0.00334438         92.0284       0.00244999        -42.5496        0.0020994        -94.9646         0.997826       -0.782692  
                        0.997826       -0.782796        0.0020994        -94.9646       0.00244985        -42.5578       0.00334438         92.0281  
                      0.00209941        -94.9618         0.997826       -0.782693       0.00334438         92.0281       0.00244973        -42.5523  
0.3376                0.00247984        -43.5299       0.00344648           92.09          0.99781       -0.806246       0.00216207        -95.1014  
                      0.00344649           92.09       0.00248016        -43.5195       0.00216206        -95.1042         0.997811        -0.80614  
                        0.997811       -0.806247       0.00216206        -95.1042       0.00248001         -43.528       0.00344648         92.0897  
                      0.00216207        -95.1014         0.997811       -0.806141       0.00344648         92.0897       0.00247989        -43.5225  
0.3475                 0.0025105        -44.4814       0.00354869         92.1514         0.997795       -0.829686       0.00222468        -95.2407  
                      0.00354869         92.1514       0.00251083        -44.4705       0.00222467        -95.2434         0.997795       -0.829577  
                        0.997795       -0.829687       0.00222467        -95.2434       0.00251067        -44.4792       0.00354868         92.1511  
                      0.00222468        -95.2406         0.997795       -0.829578       0.00354868         92.1511       0.00251055        -44.4739  
0.3574                0.00254165        -45.4143         0.003651         92.2126         0.997779       -0.853116       0.00228724        -95.3796  
                        0.003651         92.2126       0.00254199        -45.4029       0.00228723        -95.3823         0.997779       -0.853004  
                        0.997779       -0.853116       0.00228723        -95.3823       0.00254183        -45.4119       0.00365099         92.2123  
                      0.00228724        -95.3795         0.997779       -0.853004       0.00365099         92.2123        0.0025417        -45.4066  
0.3673                0.00257327        -46.3289       0.00375341         92.2735         0.997763       -0.876534       0.00234975        -95.5181  
                      0.00375342         92.2735       0.00257362        -46.3172       0.00234975        -95.5208         0.997763       -0.876419  
                        0.997763       -0.876535       0.00234974        -95.5209       0.00257346        -46.3263       0.00375341         92.2732  
                      0.00234975        -95.5181         0.997763        -0.87642       0.00375341         92.2732       0.00257333        -46.3212  
0.3772                0.00260534        -47.2257       0.00385594         92.3341         0.997746       -0.899942       0.00241221        -95.6563  
                      0.00385594         92.3341       0.00260571        -47.2135       0.00241221         -95.659         0.997746       -0.899824  
                        0.997746       -0.899943       0.00241221         -95.659       0.00260555        -47.2229       0.00385593         92.3338  
                      0.00241221        -95.6562         0.997746       -0.899825       0.00385593         92.3338       0.00260541        -47.2179  
0.3871                0.00263786        -48.1051       0.00395858         92.3945         0.997729        -0.92334       0.00247462        -95.7941  
                      0.00395858         92.3945       0.00263824        -48.0924       0.00247462        -95.7969          0.99773       -0.923219  
                        0.997729       -0.923341       0.00247462        -95.7969       0.00263807         -48.102       0.00395857         92.3941  
                      0.00247462        -95.7941          0.99773       -0.923219       0.00395857         92.3941       0.00263793        -48.0971  
0.397                 0.00267079        -48.9672       0.00406133         92.4545         0.997712       -0.946727       0.00253699        -95.9316  
                      0.00406133         92.4545       0.00267119        -48.9541       0.00253699        -95.9344         0.997712       -0.946603  
                        0.997712       -0.946728       0.00253698        -95.9344       0.00267102        -48.9639       0.00406132         92.4542  
                      0.00253699        -95.9316         0.997712       -0.946603       0.00406132         92.4542       0.00267087        -48.9591  
0.4069                0.00270413        -49.8126        0.0041642         92.5143         0.997695       -0.970104        0.0025993        -96.0688  
                       0.0041642         92.5143       0.00270454        -49.7991        0.0025993        -96.0716         0.997695       -0.969976  
                        0.997695       -0.970104        0.0025993        -96.0716       0.00270437        -49.8091       0.00416419         92.5139  
                       0.0025993        -96.0687         0.997695       -0.969977       0.00416419         92.5139       0.00270422        -49.8044  
0.4168                0.00273786        -50.6417       0.00426719         92.5738         0.997677        -0.99347       0.00266156        -96.2057  
                      0.00426719         92.5738       0.00273829        -50.6277       0.00266157        -96.2085         0.997677        -0.99334  
                        0.997677       -0.993471       0.00266157        -96.2085       0.00273811        -50.6379       0.00426718         92.5734  
                      0.00266156        -96.2056         0.997677        -0.99334       0.00426718         92.5734       0.00273795        -50.6334  
0.4267                0.00277196        -51.4547        0.0043703         92.6329         0.997659        -1.01683       0.00272378        -96.3422  
                       0.0043703         92.6329        0.0027724        -51.4403       0.00272378        -96.3451         0.997659        -1.01669  
                        0.997659        -1.01683       0.00272378        -96.3451       0.00277222        -51.4507       0.00437029         92.6325  
                      0.00272378        -96.3422         0.997659        -1.01669       0.00437029         92.6325       0.00277206        -51.4463  
0.4366                0.00280642        -52.2522       0.00447353         92.6918         0.997641        -1.04017       0.00278594        -96.4785  
                      0.00447353         92.6918       0.00280688        -52.2373       0.00278595        -96.4814         0.997641        -1.04004  
                        0.997641        -1.04017       0.00278595        -96.4814       0.00280669        -52.2479       0.00447353         92.6914  
                      0.00278594        -96.4785         0.997641        -1.04004       0.00447352         92.6914       0.00280653        -52.2437  
0.4465                0.00284122        -53.0343       0.00457689         92.7503         0.997622        -1.06351       0.00284806        -96.6146  
                      0.00457689         92.7503        0.0028417         -53.019       0.00284806        -96.6175         0.997622        -1.06337  
                        0.997622        -1.06351       0.00284806        -96.6175       0.00284151        -53.0298       0.00457689         92.7499  
                      0.00284806        -96.6146         0.997622        -1.06337       0.00457688         92.7499       0.00284134        -53.0258  
0.4564                0.00287636        -53.8017       0.00468038         92.8085         0.997603        -1.08683       0.00291012        -96.7504  
                      0.00468038         92.8085       0.00287685        -53.7859       0.00291013        -96.7533         0.997603        -1.08669  
                        0.997603        -1.08683       0.00291013        -96.7533       0.00287666        -53.7969       0.00468037         92.8081  
                      0.00291012        -96.7504         0.997603        -1.08669       0.00468037         92.8081       0.00287649         -53.793  
0.4663                0.00291182        -54.5545         0.004784         92.8664         0.997584        -1.11015       0.00297214        -96.8859  
                        0.004784         92.8664       0.00291232        -54.5383       0.00297215        -96.8889         0.997584           -1.11  
                        0.997584        -1.11015       0.00297215        -96.8889       0.00291213        -54.5495       0.00478399         92.8659  
                      0.00297214        -96.8859         0.997584           -1.11       0.00478399         92.8659       0.00291195        -54.5458  
0.4762                0.00294758        -55.2932       0.00488775         92.9239         0.997565        -1.13345        0.0030341        -97.0212  
                      0.00488775         92.9239        0.0029481        -55.2766       0.00303412        -97.0243         0.997565         -1.1333  
                        0.997565        -1.13345       0.00303412        -97.0243        0.0029479        -55.2879       0.00488774         92.9234  
                       0.0030341        -97.0212         0.997565         -1.1333       0.00488774         92.9234       0.00294772        -55.2844  
0.4861                0.00298364        -56.0182       0.00499163         92.9811         0.997545        -1.15675       0.00309602        -97.1563  
                      0.00499163         92.9811       0.00298417        -56.0012       0.00309604        -97.1594         0.997545         -1.1566  
                        0.997545        -1.15675       0.00309604        -97.1594       0.00298396        -56.0127       0.00499162         92.9806  
                      0.00309602        -97.1563         0.997545         -1.1566       0.00499162         92.9806       0.00298378        -56.0093  
0.496                 0.00301997        -56.7298       0.00509565         93.0379         0.997525        -1.18003       0.00315789        -97.2912  
                      0.00509565         93.0379       0.00302052        -56.7123        0.0031579        -97.2944         0.997525        -1.17988  
                        0.997525        -1.18003        0.0031579        -97.2944       0.00302031         -56.724       0.00509564         93.0375  
                      0.00315789        -97.2912         0.997525        -1.17988       0.00509564         93.0375       0.00302012        -56.7208  
0.505900032           0.00305658        -57.4284       0.00519981         93.0945         0.997505        -1.20331        0.0032197        -97.4259  
                      0.00519981         93.0945       0.00305714        -57.4105       0.00321972        -97.4291         0.997505        -1.20315  
                        0.997505        -1.20331       0.00321972        -97.4291       0.00305693        -57.4223        0.0051998          93.094  
                       0.0032197        -97.4259         0.997505        -1.20315        0.0051998          93.094       0.00305674        -57.4193  
0.5158                0.00309345        -58.1142       0.00530411         93.1506         0.997484        -1.22657       0.00328147        -97.5605  
                      0.00530411         93.1506       0.00309402        -58.0959       0.00328149        -97.5637         0.997484        -1.22641  
                        0.997484        -1.22657       0.00328149        -97.5637       0.00309381        -58.1079        0.0053041         93.1501  
                      0.00328147        -97.5605         0.997484        -1.22641        0.0053041         93.1501       0.00309361        -58.1051  
0.525699968           0.00313056        -58.7877       0.00540855         93.2064         0.997463        -1.24983       0.00334318        -97.6948  
                      0.00540855         93.2064       0.00313115         -58.769       0.00334321        -97.6981         0.997463        -1.24966  
                        0.997463        -1.24983       0.00334321        -97.6981       0.00313093        -58.7811       0.00540853         93.2059  
                      0.00334318        -97.6948         0.997463        -1.24966       0.00540854         93.2059       0.00313073        -58.7785  
0.5356                0.00316792        -59.4492       0.00551313         93.2619         0.997442        -1.27307       0.00340484         -97.829  
                      0.00551313         93.2619       0.00316852        -59.4301       0.00340487        -97.8324         0.997442        -1.27291  
                        0.997442        -1.27307       0.00340487        -97.8324        0.0031683        -59.4424       0.00551312         93.2614  
                      0.00340484         -97.829         0.997442        -1.27291       0.00551312         93.2614       0.00316809        -59.4399  
0.545499968            0.0032055         -60.099       0.00561786          93.317         0.997421        -1.29631       0.00346645         -97.963  
                      0.00561786          93.317       0.00320612        -60.0794       0.00346648        -97.9664         0.997421        -1.29614  
                        0.997421        -1.29631       0.00346648        -97.9664       0.00320589        -60.0919       0.00561784         93.3164  
                      0.00346645         -97.963         0.997421        -1.29614       0.00561784         93.3164       0.00320568        -60.0897  
0.5554                 0.0032433        -60.7375       0.00572273         93.3717         0.997399        -1.31953       0.00352801        -98.0969  
                      0.00572273         93.3717       0.00324393        -60.7175       0.00352805        -98.1004         0.997399        -1.31936  
                        0.997399        -1.31953       0.00352805        -98.1004        0.0032437        -60.7301       0.00572272         93.3712  
                      0.00352801        -98.0969         0.997399        -1.31936       0.00572272         93.3712       0.00324349        -60.7281  
0.565299968           0.00328131        -61.3649       0.00582775         93.4261         0.997377        -1.34275       0.00358952        -98.2307  
                      0.00582775         93.4261       0.00328195        -61.3444       0.00358956        -98.2342         0.997377        -1.34257  
                        0.997377        -1.34275       0.00358956        -98.2342       0.00328172        -61.3572       0.00582774         93.4256  
                      0.00358952        -98.2307         0.997377        -1.34257       0.00582774         93.4255        0.0032815        -61.3554  
0.5752                0.00331952        -61.9815       0.00593292         93.4801         0.997355        -1.36595       0.00365097        -98.3643  
                      0.00593292         93.4801       0.00332018        -61.9606       0.00365101        -98.3679         0.997355        -1.36577  
                        0.997355        -1.36595       0.00365101        -98.3679       0.00331994        -61.9736       0.00593291         93.4796  
                      0.00365097        -98.3644         0.997355        -1.36577       0.00593291         93.4796       0.00331972        -61.9719  
0.585099968           0.00335792        -62.5877       0.00603825         93.5338         0.997332        -1.38915       0.00371238        -98.4979  