! TOUCHSTONE file generated by CST MICROWAVE STUDIO
! Date and time: Mon Oct 20 16:07:56 2014
! Project name: Untitled_1.cst
# GHZ S MA R 50
0.1                   0.00182654        -5.38275      0.000815369         90.4288         0.998137       -0.232866      0.000659751        -91.0933  
                     0.000815369         90.4288       0.00182688        -5.47711      0.000659751         -91.093         0.998137       -0.232816  
                        0.998137       -0.232866       0.00065975         -91.093       0.00182649         -5.3826       0.00081537         90.4288  
                     0.000659751        -91.0933         0.998137       -0.232816       0.00081537         90.4288       0.00182688        -5.47722  
0.1099                0.00182601        -5.92382      0.000896061         90.4637          0.99813       -0.255897      0.000724863        -91.2079  
                     0.000896066         90.4637       0.00182641        -6.02714      0.000724863        -91.2076          0.99813       -0.255838  
                         0.99813       -0.255889      0.000724863        -91.2076       0.00182594        -5.92429      0.000896063         90.4636  
                     0.000724863        -91.2079          0.99813       -0.255842      0.000896062         90.4636       0.00182641        -6.02681  
0.1198                0.00182539        -6.46813      0.000976766         90.5011         0.998123       -0.278922      0.000789956        -91.3201  
                     0.000976774          90.501       0.00182586        -6.58039      0.000789956        -91.3198         0.998123       -0.278854  
                        0.998123       -0.278905      0.000789956        -91.3197       0.00182529        -6.46913       0.00097677          90.501  
                     0.000789956        -91.3201         0.998123       -0.278861      0.000976768          90.501       0.00182586        -6.57965  
0.129700008           0.00182465        -7.01582       0.00105749         90.5404         0.998115        -0.30194       0.00085503        -91.4303  
                       0.0010575         90.5403       0.00182521        -7.13699       0.00085503        -91.4299         0.998115       -0.301863  
                        0.998115       -0.301916       0.00085503        -91.4299       0.00182454        -7.01728       0.00105749         90.5403  
                      0.00085503        -91.4303         0.998115       -0.301873       0.00105749         90.5403        0.0018252        -7.13589  
0.1396                0.00182382        -7.56701       0.00113822         90.5813         0.998106        -0.32495      0.000920084         -91.539  
                      0.00113824         90.5811       0.00182446        -7.69708      0.000920084        -91.5386         0.998106       -0.324865  
                        0.998106        -0.32492      0.000920084        -91.5386       0.00182369        -7.56887       0.00113823         90.5812  
                     0.000920084        -91.5389         0.998106       -0.324877       0.00113823         90.5811       0.00182446        -7.69567  
0.1495                0.00182288        -8.12185       0.00121898         90.6233         0.998097       -0.347952      0.000985115        -91.6464  
                        0.001219         90.6231       0.00182361         -8.2608      0.000985115         -91.646         0.998097       -0.347859  
                        0.998097       -0.347918      0.000985115         -91.646       0.00182274        -8.12403       0.00121899         90.6232  
                     0.000985115        -91.6464         0.998097       -0.347874       0.00121899         90.6231       0.00182361        -8.25911  
0.1594                0.00182184        -8.68047       0.00129976         90.6662         0.998087       -0.370946       0.00105012        -91.7528  
                      0.00129978          90.666       0.00182267        -8.82828       0.00105012        -91.7524         0.998087       -0.370845  
                        0.998087       -0.370908       0.00105012        -91.7524       0.00182168        -8.68292       0.00129977         90.6661  
                      0.00105012        -91.7528         0.998087       -0.370862       0.00129977          90.666       0.00182267        -8.82635  
0.1693                0.00182068          -9.243       0.00138057         90.7099         0.998076       -0.393932       0.00111511        -91.8584  
                      0.00138059         90.7097       0.00182163        -9.39965       0.00111511         -91.858         0.998076       -0.393823  
                        0.998077       -0.393891       0.00111511         -91.858       0.00182052        -9.24567       0.00138058         90.7097  
                      0.00111511        -91.8584         0.998077       -0.393842       0.00138058         90.7097       0.00182163        -9.39752  
0.1792                0.00181943        -9.80958       0.00146141         90.7542         0.998065       -0.416909       0.00118007        -91.9633  
                      0.00146143          90.754       0.00182048        -9.97505       0.00118007        -91.9629         0.998065       -0.416793  
                        0.998066       -0.416865       0.00118007        -91.9629       0.00181925        -9.81242       0.00146142          90.754  
                      0.00118007        -91.9633         0.998066       -0.416813       0.00146141         90.7539       0.00182049        -9.97274  
0.1891                0.00181806        -10.3803       0.00154227         90.7989         0.998054       -0.439877         0.001245        -92.0677  
                       0.0015423         90.7987       0.00181924        -10.5546         0.001245        -92.0671         0.998054       -0.439754  
                        0.998054       -0.439832         0.001245        -92.0671       0.00181788        -10.3833       0.00154228         90.7988  
                        0.001245        -92.0676         0.998054       -0.439776       0.00154228         90.7987       0.00181925        -10.5522  
0.199                 0.00181658        -10.9554       0.00162317          90.844         0.998042       -0.462836        0.0013099        -92.1714  
                       0.0016232         90.8438       0.00181789        -11.1385        0.0013099        -92.1709         0.998042       -0.462706  
                        0.998042       -0.462789        0.0013099        -92.1709        0.0018164        -10.9585       0.00162318         90.8439  
                       0.0013099        -92.1714         0.998042       -0.462728       0.00162318         90.8438       0.00181791        -11.1359  
0.2089                  0.001815        -11.5349       0.00170411         90.8895         0.998029       -0.485785       0.00137478        -92.2748  
                      0.00170413         90.8893       0.00181645        -11.7267       0.00137478        -92.2742         0.998029       -0.485648  
                        0.998029       -0.485738       0.00137478        -92.2742       0.00181481         -11.538       0.00170412         90.8893  
                      0.00137478        -92.2748         0.998029       -0.485672       0.00170411         90.8893       0.00181647        -11.7241  
0.2188                0.00181331         -12.119       0.00178508         90.9352         0.998016       -0.508724       0.00143963        -92.3777  
                      0.00178511         90.9349        0.0018149        -12.3195       0.00143963        -92.3772         0.998016       -0.508581  
                        0.998016       -0.508677       0.00143963        -92.3771       0.00181311        -12.1221       0.00178509          90.935  
                      0.00143963        -92.3777         0.998016       -0.508606       0.00178508         90.9349       0.00181492        -12.3168  
0.2287                0.00181151        -12.7078       0.00186609          90.981         0.998002       -0.531653       0.00150444        -92.4803  
                      0.00186612         90.9808       0.00181325         -12.917       0.00150444        -92.4797         0.998002       -0.531504  
                        0.998002       -0.531606       0.00150444        -92.4797       0.00181131        -12.7109        0.0018661         90.9808  
                      0.00150444        -92.4803         0.998002       -0.531529        0.0018661         90.9808       0.00181328        -12.9143  
0.2386                0.00180961        -13.3014       0.00194715          91.027         0.997987       -0.554571       0.00156922        -92.5826  
                      0.00194718         91.0268        0.0018115        -13.5193       0.00156922         -92.582         0.997988       -0.554417  
                        0.997988       -0.554526       0.00156922         -92.582        0.0018094        -13.3045       0.00194716         91.0268  
                      0.00156922        -92.5826         0.997988       -0.554442       0.00194715         91.0268       0.00181153        -13.5166  
0.2485                0.00180759           -13.9       0.00202825         91.0731         0.997972       -0.577479       0.00163397        -92.6847  
                      0.00202828         91.0729       0.00180965        -14.1266       0.00163397         -92.684         0.997973        -0.57732  
                        0.997973       -0.577435       0.00163397         -92.684       0.00180738        -13.9031       0.00202826         91.0729  
                      0.00163397        -92.6846         0.997973       -0.577345       0.00202825         91.0729       0.00180969        -14.1238  
0.2584                0.00180547        -14.5037        0.0021094         91.1193         0.997957       -0.600376       0.00169869        -92.7864  
                      0.00210942          91.119        0.0018077        -14.7389       0.00169869        -92.7857         0.997957       -0.600212  
                        0.997958       -0.600334       0.00169869        -92.7857       0.00180526        -14.5067       0.00210941         91.1191  
                      0.00169869        -92.7864         0.997957       -0.600238        0.0021094          91.119       0.00180774        -14.7361  
0.2683                0.00180324        -15.1127       0.00219059         91.1654         0.997941       -0.623262       0.00176337        -92.8879  
                      0.00219062         91.1652       0.00180565        -15.3564       0.00176337        -92.8872         0.997941       -0.623094  
                        0.997942       -0.623222       0.00176337        -92.8872       0.00180303        -15.1156        0.0021906         91.1653  
                      0.00176337        -92.8879         0.997941       -0.623119        0.0021906         91.1652        0.0018057        -15.3537  
0.2782                0.00180091         -15.727       0.00227184         91.2116         0.997924       -0.646137       0.00182801        -92.9893  
                      0.00227187         91.2114        0.0018035        -15.9793       0.00182801        -92.9885         0.997925       -0.645965  
                        0.997925       -0.646099       0.00182801        -92.9885        0.0018007        -15.7298       0.00227185         91.2114  
                      0.00182801        -92.9893         0.997925       -0.645989       0.00227185         91.2114       0.00180356        -15.9766  
0.2881                0.00179847        -16.3468       0.00235315         91.2578         0.997907       -0.669001       0.00189262        -93.0904  
                      0.00235317         91.2576       0.00180126        -16.6076       0.00189262        -93.0896         0.997908       -0.668824  
                        0.997908       -0.668965       0.00189262        -93.0896       0.00179826        -16.3495       0.00235316         91.2576  
                      0.00189262        -93.0904         0.997908       -0.668848       0.00235315         91.2576       0.00180131         -16.605  
0.298                 0.00179593        -16.9723       0.00243451         91.3039          0.99789       -0.691853       0.00195718        -93.1913  
                      0.00243453         91.3037       0.00179891        -17.2415       0.00195718        -93.1905          0.99789       -0.691673  
                         0.99789       -0.691819       0.00195718        -93.1905       0.00179573        -16.9749       0.00243452         91.3037  
                      0.00195718        -93.1913          0.99789       -0.691696       0.00243451         91.3037       0.00179898         -17.239  
0.3079                0.00179328        -17.6036       0.00251593           91.35         0.997872       -0.714694       0.00202171        -93.2921  
                      0.00251595         91.3498       0.00179648        -17.8812       0.00202171        -93.2913         0.997872        -0.71451  
                        0.997872       -0.714662       0.00202171        -93.2913       0.00179308         -17.606       0.00251593         91.3498  
                      0.00202171        -93.2921         0.997872       -0.714532       0.00251593         91.3498       0.00179655        -17.8787  
0.3178                0.00179054        -18.2407        0.0025974          91.396         0.997853       -0.737523        0.0020862        -93.3927  
                      0.00259743         91.3958       0.00179394        -18.5267        0.0020862        -93.3918         0.997854       -0.737335  
                        0.997854       -0.737493        0.0020862        -93.3918       0.00179034        -18.2431       0.00259741         91.3958  
                       0.0020862        -93.3927         0.997854       -0.737357        0.0025974         91.3958       0.00179402        -18.5243  
0.3277                0.00178769         -18.884       0.00267895         91.4419         0.997834        -0.76034       0.00215064        -93.4931  
                      0.00267897         91.4417       0.00179132        -19.1782       0.00215064        -93.4923         0.997834       -0.760149  
                        0.997835       -0.760312       0.00215064        -93.4923        0.0017875        -18.8862       0.00267895         91.4417  
                      0.00215064        -93.4931         0.997835        -0.76017       0.00267895         91.4417        0.0017914        -19.1758  
0.3376                0.00178475        -19.5334       0.00276055         91.4876         0.997814       -0.783144       0.00221504        -93.5935  
                      0.00276057         91.4875       0.00178861        -19.8358       0.00221504        -93.5925         0.997815       -0.782951  
                        0.997815        -0.78312       0.00221504        -93.5925       0.00178457        -19.5355       0.00276056         91.4875  
                      0.00221504        -93.5934         0.997815       -0.782971       0.00276055         91.4874        0.0017887        -19.8336  
0.3475                0.00178172        -20.1892       0.00284223         91.5333         0.997794       -0.805937        0.0022794        -93.6936  
                      0.00284225         91.5332       0.00178581        -20.4997        0.0022794        -93.6927         0.997795       -0.805741  
                        0.997795       -0.805914        0.0022794        -93.6927       0.00178154        -20.1912       0.00284223         91.5331  
                       0.0022794        -93.6936         0.997795       -0.805759       0.00284223         91.5331        0.0017859        -20.4975  
0.3574                0.00177859        -20.8514       0.00292397         91.5788         0.997774       -0.828717       0.00234371        -93.7936  
                      0.00292399         91.5787       0.00178292          -21.17       0.00234371        -93.7927         0.997774       -0.828519  
                        0.997774       -0.828697       0.00234371        -93.7927       0.00177841        -20.8533       0.00292398         91.5787  
                      0.00234371        -93.7936         0.997774       -0.828536       0.00292397         91.5786       0.00178302        -21.1679  
0.3673                0.00177537        -21.5203       0.00300579         91.6242         0.997752       -0.851485       0.00240797        -93.8935  
                       0.0030058         91.6241       0.00177995        -21.8468       0.00240797        -93.8925         0.997753       -0.851284  
                        0.997753       -0.851467       0.00240797        -93.8925        0.0017752         -21.522       0.00300579          91.624  
                      0.00240797        -93.8935         0.997753         -0.8513       0.00300578          91.624       0.00178006        -21.8448  
0.3772                0.00177207         -22.196       0.00308768         91.6694         0.997731       -0.874241       0.00247219        -93.9933  
                      0.00308769         91.6693        0.0017769        -22.5303       0.00247218        -93.9922         0.997732       -0.874037  
                        0.997731       -0.874225       0.00247219        -93.9922        0.0017719        -22.1976       0.00308768         91.6693  
                      0.00247218        -93.9933         0.997732       -0.874052       0.00308767         91.6693       0.00177701        -22.5284  
0.3871                0.00176868        -22.8785       0.00316964         91.7145         0.997709       -0.896984       0.00253635        -94.0929  
                      0.00316965         91.7144       0.00177377        -23.2205       0.00253635        -94.0919          0.99771       -0.896778  
                        0.997709        -0.89697       0.00253635        -94.0918       0.00176852          -22.88       0.00316964         91.7143  
                      0.00253635        -94.0929          0.99771       -0.896791       0.00316963         91.7143       0.00177389        -23.2188  
0.397                 0.00176521        -23.5681       0.00325168         91.7594         0.997686       -0.919714       0.00260047        -94.1924  
                      0.00325169         91.7593       0.00177057        -23.9178       0.00260047        -94.1913         0.997687       -0.919506  
                        0.997687       -0.919702       0.00260047        -94.1913       0.00176505        -23.5695       0.00325168         91.7592  
                      0.00260047        -94.1924         0.997687       -0.919518       0.00325168         91.7592        0.0017707        -23.9161  
0.4069                0.00176166        -24.2649        0.0033338         91.8041         0.997663       -0.942431       0.00266454        -94.2918  
                      0.00333381          91.804        0.0017673        -24.6221       0.00266453        -94.2907         0.997664       -0.942221  
                        0.997664       -0.942421       0.00266454        -94.2907       0.00176151        -24.2662        0.0033338         91.8039  
                      0.00266453        -94.2918         0.997664       -0.942232       0.00333379         91.8039       0.00176743        -24.6205  
0.4168                0.00175804         -24.969         0.003416         91.8486          0.99764       -0.965136       0.00272855         -94.391  
                      0.00341601         91.8485       0.00176396        -25.3336       0.00272855        -94.3899         0.997641       -0.964923  
                         0.99764       -0.965127       0.00272855        -94.3899       0.00175789        -24.9702         0.003416         91.8484  
                      0.00272855         -94.391         0.997641       -0.964933         0.003416         91.8484        0.0017641        -25.3321  
0.4267                0.00175434        -25.6806       0.00349829         91.8929         0.997616       -0.987827       0.00279251        -94.4902  
                      0.00349829         91.8928       0.00176056        -26.0524       0.00279251         -94.489         0.997617       -0.987613  
                        0.997616        -0.98782       0.00279251         -94.489        0.0017542        -25.6817       0.00349828         91.8927  
                      0.00279251        -94.4902         0.997617       -0.987622       0.00349828         91.8927        0.0017607         -26.051  
0.4366                0.00175058        -26.3999       0.00358066          91.937         0.997592        -1.01051       0.00285642        -94.5892  
                      0.00358066         91.9369        0.0017571        -26.7788       0.00285641         -94.588         0.997593        -1.01029  
                        0.997592         -1.0105       0.00285642         -94.588       0.00175045        -26.4009       0.00358065         91.9368  
                      0.00285641        -94.5892         0.997593         -1.0103       0.00358065         91.9368       0.00175724        -26.7774  
0.4465                0.00174676        -27.1269       0.00366311         91.9808         0.997567        -1.03317       0.00292027        -94.6881  
                      0.00366312         91.9808       0.00175358        -27.5127       0.00292027        -94.6869         0.997568        -1.03295  
                        0.997567        -1.03317       0.00292027        -94.6869       0.00174663        -27.1278       0.00366311         91.9807  
                      0.00292027        -94.6881         0.997568        -1.03296        0.0036631         91.9807       0.00175373        -27.5115  
0.4564                0.00174288        -27.8619       0.00374566         92.0245         0.997542        -1.05582       0.00298406        -94.7869  
                      0.00374566         92.0244       0.00175001        -28.2545       0.00298406        -94.7857         0.997543         -1.0556  
                        0.997542        -1.05582       0.00298406        -94.7857       0.00174275        -27.8627       0.00374565         92.0243  
                      0.00298406        -94.7869         0.997543        -1.05561       0.00374565         92.0243       0.00175017        -28.2532  
0.4663                0.00173894        -28.6049       0.00382829         92.0679         0.997516        -1.07846        0.0030478        -94.8856  
                       0.0038283         92.0679       0.00174639        -29.0041        0.0030478        -94.8843         0.997517        -1.07824  
                        0.997516        -1.07846        0.0030478        -94.8843       0.00173882        -28.6057       0.00382829         92.0678  
                       0.0030478        -94.8856         0.997517        -1.07824       0.00382828         92.0678       0.00174656        -29.0029  
0.4762                0.00173496        -29.3561       0.00391102         92.1111          0.99749        -1.10109       0.00311148        -94.9841  
                      0.00391102         92.1111       0.00174273        -29.7617       0.00311148        -94.9828         0.997491        -1.10086  
                         0.99749        -1.10109       0.00311148        -94.9828       0.00173484        -29.3569       0.00391101         92.1109  
                      0.00311147        -94.9841         0.997491        -1.10087       0.00391101         92.1109        0.0017429        -29.7606  
0.4861                0.00173093        -30.1158       0.00399384          92.154         0.997463         -1.1237       0.00317509        -95.0826  
                      0.00399384          92.154       0.00173903        -30.5276       0.00317509        -95.0813         0.997465        -1.12348  
                        0.997463         -1.1237       0.00317509        -95.0813       0.00173081        -30.1165       0.00399384         92.1539  
                      0.00317509        -95.0826         0.997465        -1.12348       0.00399383         92.1539       0.00173921        -30.5264  
0.496                 0.00172686        -30.8839       0.00407676         92.1967         0.997436         -1.1463       0.00323865        -95.1809  
                      0.00407676         92.1967       0.00173531        -31.3017       0.00323865        -95.1796         0.997438        -1.14607  
                        0.997436         -1.1463       0.00323865        -95.1796       0.00172675        -30.8846       0.00407675         92.1966  
                      0.00323865        -95.1809         0.997438        -1.14607       0.00407675         92.1966       0.00173549        -31.3005  
0.505900032           0.00172276        -31.6606       0.00415978         92.2392         0.997409        -1.16889       0.00330215        -95.2791  
                      0.00415978         92.2392       0.00173155        -32.0842       0.00330215        -95.2777          0.99741        -1.16866  
                        0.997409        -1.16889       0.00330215        -95.2777       0.00172265        -31.6613       0.00415977          92.239  
                      0.00330215        -95.2791          0.99741        -1.16866       0.00415977          92.239       0.00173175         -32.083  
0.5158                0.00171863        -32.4462       0.00424289         92.2813         0.997381        -1.19146       0.00336558        -95.3772  
                      0.00424289         92.2814       0.00172778        -32.8753       0.00336558        -95.3758         0.997382        -1.19123  
                        0.997381        -1.19146       0.00336558        -95.3758       0.00171853        -32.4469       0.00424288         92.2812  
                      0.00336558        -95.3772         0.997382        -1.19123       0.00424288         92.2812       0.00172798        -32.8741  
0.525699968           0.00171448        -33.2407       0.00432611         92.3233         0.997353        -1.21402       0.00342895        -95.4752  
                       0.0043261         92.3233       0.00172399         -33.675       0.00342895        -95.4737         0.997354        -1.21378  
                        0.997353        -1.21402       0.00342895        -95.4737       0.00171438        -33.2414        0.0043261         92.3231  
                      0.00342895        -95.4752         0.997354        -1.21378        0.0043261         92.3231        0.0017242        -33.6738  
0.5356                0.00171031        -34.0443       0.00440943         92.3649         0.997324        -1.23656       0.00349225         -95.573  
                      0.00440942         92.3649       0.00172019        -34.4836       0.00349225        -95.5715         0.997325        -1.23633  
                        0.997324        -1.23657       0.00349226        -95.5715       0.00171022        -34.0449       0.00440941         92.3648  
                      0.00349225         -95.573         0.997325        -1.23632       0.00440941         92.3648       0.00172041        -34.4823  
0.545499968           0.00170614         -34.857       0.00449285         92.4063         0.997295         -1.2591       0.00355549        -95.6707  
                      0.00449284         92.4063       0.00171639        -35.3011       0.00355549        -95.6692         0.997296        -1.25886  
                        0.997295         -1.2591       0.00355549        -95.6692       0.00170605        -34.8577       0.00449283         92.4062  
                      0.00355549        -95.6707         0.997296        -1.25885       0.00449283         92.4062       0.00171661        -35.2998  
0.5554                0.00170196        -35.6791       0.00457638         92.4474         0.997265        -1.28161       0.00361866        -95.7683  
                      0.00457637         92.4474        0.0017126        -36.1276       0.00361866        -95.7668         0.997267        -1.28137  
                        0.997265        -1.28162       0.00361867        -95.7668       0.00170187        -35.6799       0.00457636         92.4473  
                      0.00361866        -95.7683         0.997267        -1.28137       0.00457636         92.4473       0.00171283        -36.1262  
0.565299968           0.00169779        -36.5107       0.00466001         92.4882         0.997235        -1.30412       0.00368177        -95.8658  
                      0.00466001         92.4882       0.00170882        -36.9633       0.00368177        -95.8643         0.997237        -1.30387  
                        0.997235        -1.30412       0.00368177        -95.8643        0.0016977        -36.5115          0.00466         92.4881  
                      0.00368177        -95.8658         0.997237        -1.30387          0.00466         92.4881       0.00170905        -36.9618  
0.5752                0.00169363        -37.3519       0.00474376         92.5287         0.997205        -1.32661        0.0037448        -95.9632  
                      0.00474375         92.5288       0.00170505        -37.8082        0.0037448        -95.9616         0.997207        -1.32636  
                        0.997205        -1.32661        0.0037448        -95.9616       0.00169354        -37.3527       0.00474374         92.5286  
                       0.0037448        -95.9632         0.997207        -1.32636       0.00474374         92.5286       0.00170529        -37.8066  
0.585099968           0.00168949        -38.2028       0.00482761         92.5689         0.997174        -1.34909       0.00380777        -96.0604  