! TOUCHSTONE file generated by CST MICROWAVE STUDIO
! Date and time: Wed Oct 15 13:48:45 2014
! Project name: Untitled_1.cst
# GHZ S MA R 50
0.1                    0.0018981        -5.08093       0.00106141         90.0387          0.99809       -0.231355      0.000682256        -90.6252  
                      0.00106141         90.0387       0.00189802         -5.0949      0.000682257        -90.6253          0.99809       -0.231273  
                         0.99809       -0.231354      0.000682256        -90.6253       0.00189809        -5.08092       0.00106141          90.039  
                     0.000682257        -90.6252          0.99809       -0.231272       0.00106141          90.039       0.00189795        -5.09489  
0.1099                0.00190314        -5.71155       0.00116637         90.0688         0.998082       -0.253977      0.000749862        -90.6588  
                      0.00116637         90.0687       0.00190305        -5.72625      0.000749862         -90.659         0.998082       -0.253887  
                        0.998082       -0.253977      0.000749861        -90.6589       0.00190312        -5.71158       0.00116637         90.0692  
                     0.000749862         -90.659         0.998082       -0.253887       0.00116637         90.0691       0.00190299        -5.72622  
0.1198                0.00190823        -6.34075       0.00127135         90.0949         0.998075       -0.276596      0.000817467        -90.6965  
                      0.00127135         90.0947       0.00190815        -6.35618      0.000817467        -90.6968         0.998075       -0.276498  
                        0.998075       -0.276596      0.000817465        -90.6966       0.00190821        -6.34082       0.00127135         90.0953  
                     0.000817467        -90.6968         0.998075       -0.276498       0.00127135         90.0951       0.00190809        -6.35612  
0.129700008           0.00191339        -6.96854       0.00137634         90.1178         0.998067       -0.299212      0.000885071        -90.7374  
                      0.00137634         90.1175       0.00191331        -6.98469      0.000885071        -90.7378         0.998067       -0.299106  
                        0.998067       -0.299212      0.000885068        -90.7375       0.00191337        -6.96865       0.00137634         90.1183  
                      0.00088507        -90.7378         0.998067       -0.299105       0.00137634         90.1179       0.00191326        -6.98461  
0.1396                0.00191861        -7.59491       0.00148134         90.1382         0.998059       -0.321825      0.000952673        -90.7808  
                      0.00148134         90.1379       0.00191854        -7.61177      0.000952672        -90.7812         0.998059       -0.321711  
                        0.998059       -0.321824       0.00095267        -90.7809       0.00191859        -7.59506       0.00148135         90.1388  
                     0.000952672        -90.7813         0.998059        -0.32171       0.00148134         90.1383       0.00191849        -7.61167  
0.1495                 0.0019239        -8.21986       0.00158636         90.1567          0.99805       -0.344434       0.00102027        -90.8262  
                      0.00158636         90.1563       0.00192383        -8.23743       0.00102027        -90.8267          0.99805       -0.344312  
                         0.99805       -0.344434       0.00102027        -90.8263       0.00192387        -8.22006       0.00158637         90.1573  
                      0.00102027        -90.8268          0.99805       -0.344311       0.00158636         90.1567       0.00192378        -8.23731  
0.1594                0.00192924        -8.84339        0.0016914         90.1735         0.998042        -0.36704       0.00108787        -90.8733  
                       0.0016914         90.1731       0.00192918        -8.86166       0.00108787        -90.8738         0.998042        -0.36691  
                        0.998042       -0.367039       0.00108787        -90.8733       0.00192922        -8.84363       0.00169141         90.1741  
                      0.00108787        -90.8739         0.998042       -0.366909        0.0016914         90.1735       0.00192914        -8.86152  
0.1693                0.00193466        -9.46549       0.00179645          90.189         0.998033       -0.389642       0.00115547        -90.9216  
                      0.00179645         90.1885        0.0019346        -9.48446       0.00115547        -90.9222         0.998033       -0.389505  
                        0.998033       -0.389642       0.00115546        -90.9217       0.00193463        -9.46578       0.00179646         90.1896  
                      0.00115547        -90.9223         0.998033       -0.389503       0.00179645          90.189       0.00193456         -9.4843  
0.1792                0.00194013        -10.0862       0.00190152         90.2034         0.998024       -0.412241       0.00122306        -90.9711  
                      0.00190152         90.2028       0.00194008        -10.1058       0.00122306        -90.9717         0.998024       -0.412096  
                        0.998024       -0.412241       0.00122305        -90.9712        0.0019401        -10.0865       0.00190153          90.204  
                      0.00122306        -90.9719         0.998024       -0.412094       0.00190151         90.2034       0.00194004        -10.1057  
0.1891                0.00194567        -10.7054        0.0020066         90.2168         0.998014       -0.434837       0.00129065        -91.0216  
                       0.0020066         90.2162       0.00194563        -10.7258       0.00129065        -91.0222         0.998014       -0.434684  
                        0.998014       -0.434837       0.00129064        -91.0217       0.00194563        -10.7058       0.00200662         90.2175  
                      0.00129065        -91.0224         0.998014       -0.434682        0.0020066         90.2168       0.00194559        -10.7256  
0.199                 0.00195127        -11.3233        0.0021117         90.2294         0.998005       -0.457429       0.00135824        -91.0729  
                       0.0021117         90.2288       0.00195124        -11.3443       0.00135823        -91.0735         0.998005       -0.457268  
                        0.998005       -0.457429       0.00135823        -91.0729       0.00195123        -11.3237       0.00211172         90.2301  
                      0.00135823        -91.0737         0.998005       -0.457266        0.0021117         90.2294        0.0019512        -11.3441  
0.2089                0.00195693        -11.9397       0.00221682         90.2413         0.997995       -0.480018       0.00142582        -91.1248  
                      0.00221682         90.2406       0.00195691        -11.9613       0.00142581        -91.1255         0.997995       -0.479849  
                        0.997995       -0.480018       0.00142581        -91.1249       0.00195689        -11.9402       0.00221684          90.242  
                      0.00142581        -91.1257         0.997995       -0.479847       0.00221682         90.2413       0.00195687        -11.9611  
0.2188                0.00196265        -12.5547       0.00232196         90.2525         0.997985       -0.502603        0.0014934        -91.1773  
                      0.00232196         90.2519       0.00196265         -12.577       0.00149339         -91.178         0.997985       -0.502426  
                        0.997985       -0.502603       0.00149339        -91.1774       0.00196261        -12.5552       0.00232198         90.2534  
                      0.00149339        -91.1782         0.997985       -0.502424       0.00232195         90.2526       0.00196261        -12.5768  
0.2287                0.00196844        -13.1682       0.00242711         90.2633         0.997975       -0.525184       0.00156097        -91.2304  
                      0.00242711         90.2626       0.00196845        -13.1911       0.00156097        -91.2311         0.997975          -0.525  
                        0.997975       -0.525185       0.00156096        -91.2305       0.00196839        -13.1688       0.00242714         90.2641  
                      0.00156097        -91.2313         0.997975       -0.524998       0.00242711         90.2633       0.00196841         -13.191  
0.2386                0.00197429        -13.7804       0.00253229         90.2736         0.997965       -0.547762       0.00162854        -91.2839  
                      0.00253228         90.2729       0.00197432        -13.8039       0.00162854        -91.2847         0.997965        -0.54757  
                        0.997965       -0.547763       0.00162853         -91.284       0.00197424         -13.781       0.00253231         90.2745  
                      0.00162854        -91.2849         0.997965       -0.547568       0.00253228         90.2736       0.00197427        -13.8037  
0.2485                 0.0019802        -14.3911       0.00263748         90.2834         0.997954       -0.570337        0.0016961        -91.3379  
                      0.00263748         90.2828       0.00198024        -14.4152        0.0016961        -91.3386         0.997954       -0.570137  
                        0.997954       -0.570337       0.00169609         -91.338       0.00198015        -14.3918       0.00263751         90.2844  
                       0.0016961        -91.3388         0.997954       -0.570134       0.00263747         90.2835        0.0019802         -14.415  
0.2584                0.00198618        -15.0004       0.00274269         90.2929         0.997943       -0.592908       0.00176366        -91.3921  
                      0.00274269         90.2922       0.00198624        -15.0251       0.00176366        -91.3929         0.997944         -0.5927  
                        0.997943       -0.592908       0.00176365        -91.3922       0.00198612        -15.0011       0.00274272         90.2939  
                      0.00176366        -91.3931         0.997944       -0.592697       0.00274268          90.293       0.00198619        -15.0249  
0.2683                0.00199221        -15.6082       0.00284792         90.3021         0.997932       -0.615475       0.00183122        -91.4467  
                      0.00284792         90.3014       0.00199229        -15.6335       0.00183121        -91.4475         0.997933        -0.61526  
                        0.997932       -0.615475        0.0018312        -91.4468       0.00199215         -15.609       0.00284795         90.3031  
                      0.00183121        -91.4477         0.997933       -0.615256       0.00284791         90.3022       0.00199224        -15.6334  
0.2782                0.00199831        -16.2147       0.00295318          90.311         0.997921       -0.638038       0.00189876        -91.5016  
                      0.00295317         90.3102       0.00199841        -16.2405       0.00189876        -91.5024         0.997921       -0.637815  
                        0.997921       -0.638039       0.00189875        -91.5017       0.00199825        -16.2155       0.00295321          90.312  
                      0.00189876        -91.5026         0.997921       -0.637812       0.00295316         90.3111       0.00199836        -16.2404  
0.2881                0.00200447        -16.8197       0.00305845         90.3195          0.99791       -0.660598       0.00196631        -91.5567  
                      0.00305844         90.3188       0.00200459        -16.8461        0.0019663        -91.5575          0.99791       -0.660367  
                         0.99791       -0.660599       0.00196629        -91.5568       0.00200441        -16.8206       0.00305848         90.3206  
                       0.0019663        -91.5577          0.99791       -0.660364       0.00305844         90.3197       0.00200453         -16.846  
0.298                  0.0020107        -17.4233       0.00316374         90.3279         0.997898       -0.683154       0.00203384         -91.612  
                      0.00316374         90.3272       0.00201084        -17.4502       0.00203384        -91.6129         0.997898       -0.682915  
                        0.997898       -0.683155       0.00203383        -91.6122       0.00201063        -17.4243       0.00316378          90.329  
                      0.00203384        -91.6131         0.997898       -0.682912       0.00316373         90.3281       0.00201078        -17.4501  
0.3079                0.00201698        -18.0254       0.00326906          90.336         0.997886       -0.705706       0.00210137        -91.6676  
                      0.00326905         90.3353       0.00201715        -18.0528       0.00210136        -91.6684         0.997887        -0.70546  
                        0.997886       -0.705707       0.00210135        -91.6677       0.00201691        -18.0265        0.0032691         90.3371  
                      0.00210136        -91.6686         0.997887       -0.705456       0.00326905         90.3362       0.00201708        -18.0528  
0.3178                0.00202333        -18.6262        0.0033744         90.3439         0.997874       -0.728255       0.00216889        -91.7233  
                      0.00337439         90.3432       0.00202352        -18.6541       0.00216889        -91.7242         0.997874       -0.728001  
                        0.997874       -0.728256       0.00216887        -91.7235       0.00202326        -18.6273       0.00337443         90.3451  
                      0.00216888        -91.7243         0.997874       -0.727997       0.00337438         90.3442       0.00202345        -18.6541  
0.3277                0.00202975        -19.2255       0.00347976         90.3516         0.997862         -0.7508       0.00223641        -91.7792  
                      0.00347975         90.3509       0.00202996        -19.2538        0.0022364        -91.7801         0.997862       -0.750538  
                        0.997862         -0.7508       0.00223639        -91.7793       0.00202966        -19.2267        0.0034798         90.3528  
                       0.0022364        -91.7802         0.997862       -0.750534       0.00347974         90.3519       0.00202988         -19.254  
0.3376                0.00203622        -19.8234       0.00358514         90.3591         0.997849       -0.773341       0.00230391        -91.8353  
                      0.00358513         90.3584       0.00203646        -19.8522       0.00230391        -91.8361          0.99785       -0.773071  
                        0.997849       -0.773341       0.00230389        -91.8354       0.00203613        -19.8246       0.00358518         90.3604  
                       0.0023039        -91.8363          0.99785       -0.773067       0.00358512         90.3595       0.00203637        -19.8524  
0.3475                0.00204276        -20.4198       0.00369055         90.3665         0.997837       -0.795878       0.00237141        -91.8914  
                      0.00369054         90.3658       0.00204302        -20.4491        0.0023714        -91.8923         0.997837         -0.7956  
                        0.997837       -0.795878       0.00237139        -91.8916       0.00204267        -20.4211       0.00369059         90.3678  
                       0.0023714        -91.8925         0.997837       -0.795596       0.00369053         90.3669       0.00204293        -20.4493  
0.3574                0.00204936        -21.0148       0.00379598         90.3737         0.997824       -0.818411        0.0024389        -91.9478  
                      0.00379596          90.373       0.00204965        -21.0445       0.00243889        -91.9486         0.997824       -0.818126  
                        0.997824       -0.818412       0.00243888        -91.9479       0.00204926        -21.0163       0.00379602          90.375  
                      0.00243889        -91.9488         0.997824       -0.818121       0.00379596         90.3741       0.00204955        -21.0449  
0.3673                0.00205602        -21.6085       0.00390143         90.3808          0.99781        -0.84094       0.00250638        -92.0042  
                      0.00390142         90.3801       0.00205634        -21.6385       0.00250638        -92.0051         0.997811       -0.840647  
                         0.99781       -0.840941       0.00250636        -92.0043       0.00205592          -21.61       0.00390147         90.3821  
                      0.00250637        -92.0052         0.997811       -0.840642       0.00390141         90.3812       0.00205623         -21.639  
0.3772                0.00206274        -22.2006       0.00400691         90.3877         0.997797       -0.863465       0.00257386        -92.0607  
                      0.00400689          90.387       0.00206309        -22.2311       0.00257385        -92.0616         0.997798       -0.863165  
                        0.997797       -0.863466       0.00257384        -92.0609       0.00206264        -22.2022       0.00400695         90.3891  
                      0.00257385        -92.0617         0.997798        -0.86316       0.00400689         90.3882       0.00206298        -22.2316  
0.3871                0.00206953        -22.7914       0.00411241         90.3945         0.997783       -0.885986       0.00264132        -92.1173  
                       0.0041124         90.3938       0.00206991        -22.8222       0.00264131        -92.1182         0.997784       -0.885678  
                        0.997784       -0.885988        0.0026413        -92.1175       0.00206942        -22.7931       0.00411245          90.396  
                      0.00264131        -92.1184         0.997784       -0.885673       0.00411239         90.3951       0.00206979        -22.8229  
0.397                 0.00207638        -23.3807       0.00421794         90.4012          0.99777       -0.908504       0.00270878        -92.1741  
                      0.00421792         90.4005       0.00207679        -23.4119       0.00270877         -92.175          0.99777       -0.908188  
                         0.99777       -0.908505       0.00270875        -92.1742       0.00207627        -23.3825       0.00421798         90.4027  
                      0.00270876        -92.1751          0.99777       -0.908183       0.00421792         90.4018       0.00207667        -23.4127  
0.4069                 0.0020833        -23.9687       0.00432349         90.4078         0.997756       -0.931017       0.00277622        -92.2309  
                      0.00432348         90.4071       0.00208374        -24.0001       0.00277621        -92.2318         0.997756       -0.930693  
                        0.997756       -0.931018        0.0027762        -92.2311       0.00208318        -23.9705       0.00432354         90.4093  
                      0.00277621        -92.2319         0.997756       -0.930688       0.00432347         90.4084        0.0020836         -24.001  
0.4168                0.00209027        -24.5552       0.00442907         90.4143         0.997742       -0.953526       0.00284366        -92.2877  
                      0.00442905         90.4136       0.00209075        -24.5869       0.00284365        -92.2887         0.997742       -0.953195  
                        0.997742       -0.953527       0.00284363        -92.2879       0.00209015        -24.5571       0.00442912         90.4158  
                      0.00284364        -92.2888         0.997742        -0.95319       0.00442905         90.4149        0.0020906        -24.5879  
0.4267                0.00209731        -25.1402       0.00453467         90.4206         0.997727       -0.976031       0.00291108        -92.3447  
                      0.00453466         90.4199       0.00209782        -25.1723       0.00291107        -92.3456         0.997728       -0.975692  
                        0.997727       -0.976033       0.00291106        -92.3449       0.00209718        -25.1423       0.00453472         90.4222  
                      0.00291107        -92.3457         0.997728       -0.975687       0.00453465         90.4213       0.00209767        -25.1734  
0.4366                0.00210442        -25.7239        0.0046403         90.4269         0.997712       -0.998532       0.00297849        -92.4017  
                      0.00464029         90.4262       0.00210496        -25.7562       0.00297848        -92.4026         0.997713       -0.998186  
                        0.997712       -0.998534       0.00297847        -92.4019       0.00210428         -25.726       0.00464036         90.4285  
                      0.00297848        -92.4027         0.997713        -0.99818       0.00464028         90.4276        0.0021048        -25.7575  
0.4465                0.00211158        -26.3061       0.00474596         90.4331         0.997698        -1.02103        0.0030459        -92.4588  
                      0.00474595         90.4324       0.00211216        -26.3386       0.00304589        -92.4597         0.997698        -1.02067  
                        0.997698        -1.02103       0.00304587         -92.459       0.00211144        -26.3084       0.00474602         90.4347  
                      0.00304588        -92.4598         0.997698        -1.02067       0.00474594         90.4339       0.00211199        -26.3401  
0.4564                0.00211882        -26.8869       0.00485165         90.4392         0.997682        -1.04352       0.00311329        -92.5159  
                      0.00485163         90.4385       0.00211943        -26.9196       0.00311328        -92.5168         0.997683        -1.04316  
                        0.997683        -1.04352       0.00311326        -92.5161       0.00211867        -26.8893        0.0048517         90.4408  
                      0.00311328        -92.5169         0.997683        -1.04315       0.00485163           90.44       0.00211925        -26.9213  
0.4663                0.00212611        -27.4663       0.00495736         90.4452         0.997667        -1.06601       0.00318067        -92.5731  
                      0.00495735         90.4445       0.00212676        -27.4992       0.00318066         -92.574         0.997668        -1.06564  
                        0.997667        -1.06601       0.00318064        -92.5733       0.00212596        -27.4688       0.00495742         90.4469  
                      0.00318066        -92.5741         0.997668        -1.06564       0.00495734          90.446       0.00212657        -27.5011  
0.4762                0.00213347        -28.0443       0.00506311         90.4511         0.997652         -1.0885       0.00324804        -92.6303  
                      0.00506309         90.4504       0.00213415        -28.0774       0.00324803        -92.6312         0.997653        -1.08812  
                        0.997652         -1.0885       0.00324801        -92.6305       0.00213331        -28.0469       0.00506316         90.4528  
                      0.00324802        -92.6313         0.997653        -1.08811       0.00506308          90.452       0.00213395        -28.0794  
0.4861                0.00214089        -28.6209       0.00516888         90.4569         0.997636        -1.11098       0.00331539        -92.6876  
                      0.00516886         90.4562       0.00214161        -28.6541       0.00331538        -92.6885         0.997637        -1.11059  
                        0.997636        -1.11098       0.00331537        -92.6878       0.00214072        -28.6236       0.00516893         90.4587  
                      0.00331538        -92.6886         0.997637        -1.11058       0.00516885         90.4579        0.0021414        -28.6563  
0.496                 0.00214837         -29.196       0.00527468         90.4627          0.99762        -1.13345       0.00338274        -92.7449  
                      0.00527466          90.462       0.00214914        -29.2293       0.00338273        -92.7458         0.997621        -1.13306  
                         0.99762        -1.13345       0.00338271        -92.7451        0.0021482        -29.1988       0.00527474         90.4645  
                      0.00338272        -92.7459         0.997621        -1.13305       0.00527465         90.4637       0.00214891        -29.2317  
0.505900032           0.00215592        -29.7697       0.00538051         90.4684         0.997604        -1.15592       0.00345007        -92.8022  
                      0.00538049         90.4677       0.00215673        -29.8031       0.00345006        -92.8032         0.997605        -1.15552  
                        0.997604        -1.15592       0.00345004        -92.8025       0.00215575        -29.7727       0.00538057         90.4702  
                      0.00345005        -92.8032         0.997605        -1.15552       0.00538048         90.4694       0.00215649        -29.8058  
0.5158                0.00216353         -30.342       0.00548637          90.474         0.997588        -1.17839       0.00351739        -92.8596  
                      0.00548635         90.4733       0.00216438        -30.3755       0.00351737        -92.8606         0.997589        -1.17798  
                        0.997588        -1.17839       0.00351736        -92.8599       0.00216335        -30.3451       0.00548643         90.4759  
                      0.00351737        -92.8606         0.997589        -1.17798       0.00548634         90.4751       0.00216413        -30.3784  
0.525699968           0.00217121        -30.9129       0.00559225         90.4795         0.997571        -1.20085       0.00358469         -92.917  
                      0.00559224         90.4789        0.0021721        -30.9464       0.00358468         -92.918         0.997572        -1.20044  
                        0.997571        -1.20085       0.00358466        -92.9173       0.00217102        -30.9161       0.00559232         90.4815  
                      0.00358468         -92.918         0.997572        -1.20043       0.00559223         90.4806       0.00217184        -30.9495  
0.5356                0.00217895        -31.4823       0.00569817          90.485         0.997554        -1.22331       0.00365198        -92.9745  
                      0.00569816         90.4843       0.00217989        -31.5159       0.00365197        -92.9754         0.997555        -1.22289  
                        0.997555        -1.22331       0.00365195        -92.9747       0.00217876        -31.4857       0.00569824          90.487  
                      0.00365197        -92.9754         0.997555        -1.22288       0.00569815         90.4862       0.00217961        -31.5193  
0.545499968           0.00218676        -32.0504       0.00580413         90.4904         0.997537        -1.24577       0.00371926        -93.0319  
                      0.00580411         90.4897       0.00218773         -32.084       0.00371925        -93.0329         0.997539        -1.24534  
                        0.997538        -1.24577       0.00371923        -93.0322       0.00218656        -32.0539       0.00580419         90.4924  
                      0.00371924        -93.0329         0.997539        -1.24533        0.0058041         90.4916       0.00218745        -32.0876  
0.5554                0.00219463         -32.617       0.00591011         90.4958          0.99752        -1.26822       0.00378652        -93.0894  
                      0.00591009         90.4951       0.00219565        -32.6506       0.00378651        -93.0904         0.997521        -1.26778  
                         0.99752        -1.26822       0.00378649        -93.0897       0.00219443        -32.6207       0.00591017         90.4978  
                      0.00378651        -93.0904         0.997521        -1.26777       0.00591008          90.497       0.00219535        -32.6545  
0.565299968           0.00220257        -33.1822       0.00601612          90.501         0.997503        -1.29066       0.00385377        -93.1469  
                       0.0060161         90.5004       0.00220363        -33.2157       0.00385376        -93.1479         0.997504        -1.29022  
                        0.997503        -1.29066       0.00385374        -93.1472       0.00220236         -33.186       0.00601619         90.5031  
                      0.00385376        -93.1479         0.997504        -1.29021       0.00601609         90.5023       0.00220332        -33.2199  
0.5752                0.00221057         -33.746       0.00612217         90.5063         0.997485         -1.3131       0.00392101        -93.2045  
                      0.00612215         90.5056       0.00221168        -33.7795       0.00392099        -93.2054         0.997487        -1.31265  
                        0.997486         -1.3131       0.00392098        -93.2047       0.00221035          -33.75       0.00612223         90.5083  
                      0.00392099        -93.2054         0.997487        -1.31264       0.00612214         90.5076       0.00221135        -33.7839  
0.585099968           0.00221864        -34.3084       0.00622824         90.5114         0.997468        -1.33554       0.00398823         -93.262  