! TOUCHSTONE file generated by CST MICROWAVE STUDIO
! Date and time: Wed Oct 22 17:47:36 2014
! Project name: Untitled_1.cst
# GHZ S MA R 50
0.1                   0.00183585        -5.41481      0.000815402         90.5194         0.998146         -0.2332      0.000659849         -91.199  
                     0.000815402         90.5194       0.00183572        -5.40206      0.000659848        -91.1983         0.998146       -0.233286  
                        0.998146       -0.233199      0.000659849        -91.1983       0.00183582        -5.41544      0.000815402          90.519  
                     0.000659848         -91.199         0.998146       -0.233286      0.000815402          90.519       0.00183577        -5.40281  
0.1099                0.00183728        -5.94655       0.00089633         90.5667         0.998141       -0.256251      0.000724878        -91.3103  
                     0.000896323         90.5664       0.00183713        -5.93394      0.000724903        -91.3095         0.998141       -0.256352  
                        0.998141       -0.256249      0.000724877        -91.3093       0.00183729        -5.94805      0.000896329         90.5659  
                     0.000724885        -91.3077         0.998141       -0.256348      0.000896324         90.5666       0.00183716         -5.9353  
0.1198                0.00183882        -6.47919      0.000977277         90.6136         0.998136       -0.279294      0.000789886        -91.4206  
                     0.000977263         90.6131       0.00183866        -6.46655      0.000789934        -91.4198         0.998136        -0.27941  
                        0.998136       -0.279293      0.000789884        -91.4194       0.00183888         -6.4815      0.000977274         90.6124  
                     0.000789902        -91.4159         0.998136       -0.279402      0.000977266         90.6138       0.00183867        -6.46844  
0.129700008           0.00184049        -7.01274       0.00105824         90.6602         0.998131        -0.30233      0.000854871          -91.53  
                      0.00105822         90.6596       0.00184031        -6.99992       0.00085494        -91.5293          0.99813       -0.302459  
                        0.998131       -0.302328      0.000854868        -91.5285       0.00184059        -7.01583       0.00105824         90.6587  
                     0.000854898        -91.5238         0.998131       -0.302448       0.00105823         90.6605        0.0018403        -7.00226  
0.1396                0.00184228        -7.54722       0.00113923         90.7064         0.998125       -0.325358      0.000919831        -91.6387  
                      0.00113921         90.7058       0.00184207        -7.53408       0.00091992        -91.6382         0.998124       -0.325499  
                        0.998125       -0.325356      0.000919828         -91.637       0.00184242        -7.55103       0.00113923         90.7048  
                     0.000919872        -91.6315         0.998125       -0.325486       0.00113921         90.7069       0.00184204        -7.53678  
0.1495                0.00184419        -8.08266       0.00122024         90.7525         0.998119       -0.348378      0.000984765        -91.7467  
                      0.00122021         90.7518       0.00184395        -8.06903      0.000984871        -91.7465         0.998118       -0.348531  
                        0.998118       -0.348376      0.000984763        -91.7449       0.00184435        -8.08714       0.00122023         90.7507  
                     0.000984822        -91.7388         0.998118       -0.348515       0.00122022         90.7531       0.00184391        -8.07204  
0.1594                0.00184621        -8.61905       0.00130128         90.7983         0.998112        -0.37139       0.00104967        -91.8542  
                      0.00130124         90.7976       0.00184595        -8.60482       0.00104979        -91.8543         0.998111       -0.371554  
                        0.998112       -0.371388       0.00104967        -91.8522        0.0018464        -8.62415       0.00130127         90.7964  
                      0.00104974        -91.8458         0.998111       -0.371536       0.00130125          90.799       0.00184589        -8.60805  
0.1693                0.00184836        -9.15641       0.00138234          90.844         0.998105       -0.394394       0.00111455        -91.9611  
                       0.0013823         90.8433       0.00184805        -9.14144       0.00111468        -91.9616         0.998104       -0.394567  
                        0.998105       -0.394391       0.00111455         -91.959       0.00184856        -9.16207       0.00138233          90.842  
                      0.00111464        -91.9526         0.998104       -0.394548       0.00138231         90.8447       0.00184799        -9.14485  
0.1792                0.00185061        -9.69474       0.00146343         90.8895         0.998097       -0.417389        0.0011794        -92.0676  
                      0.00146338         90.8888       0.00185026        -9.67892       0.00117954        -92.0683         0.998097       -0.417571  
                        0.998097       -0.417385        0.0011794        -92.0654       0.00185083        -9.70092       0.00146341         90.8875  
                      0.00117951         -92.059         0.998097       -0.417551        0.0014634         90.8903        0.0018502        -9.68243  
0.1891                0.00185298        -10.2341       0.00154454         90.9349          0.99809       -0.440375       0.00124422        -92.1735  
                       0.0015445         90.9343       0.00185259        -10.2173       0.00124437        -92.1746         0.998089       -0.440566  
                         0.99809       -0.440371       0.00124422        -92.1713        0.0018532        -10.2407       0.00154453         90.9328  
                      0.00124434        -92.1652         0.998089       -0.440545       0.00154451         90.9356       0.00185252        -10.2208  
0.199                 0.00185546        -10.7743       0.00162569         90.9801         0.998082       -0.463353         0.001309        -92.2791  
                      0.00162564         90.9795       0.00185502        -10.7565       0.00130916        -92.2804         0.998081       -0.463551  
                        0.998081       -0.463348       0.00130901        -92.2767       0.00185568        -10.7814       0.00162567         90.9781  
                      0.00130914         -92.271         0.998081        -0.46353       0.00162566         90.9809       0.00185496        -10.7601  
0.2089                0.00185805        -11.3156       0.00170687         91.0253         0.998073       -0.486321       0.00137376        -92.3842  
                      0.00170682         91.0247       0.00185756        -11.2966       0.00137391        -92.3857         0.998072       -0.486527  
                        0.998073       -0.486316       0.00137376        -92.3818       0.00185827         -11.323       0.00170685         91.0232  
                      0.00137391        -92.3765         0.998073       -0.486506       0.00170684          91.026        0.0018575        -11.3001  
0.2188                0.00186075        -11.8579       0.00178808         91.0703         0.998065        -0.50928       0.00143848        -92.4888  
                      0.00178803         91.0698       0.00186021        -11.8376       0.00143863        -92.4905         0.998064       -0.509493  
                        0.998064       -0.509275       0.00143848        -92.4864       0.00186097        -11.8656       0.00178806         91.0682  
                      0.00143865        -92.4816         0.998064       -0.509472       0.00178805          91.071       0.00186015         -11.841  
0.2287                0.00186355        -12.4011       0.00186933         91.1152         0.998056        -0.53223       0.00150317        -92.5931  
                      0.00186927         91.1147       0.00186296        -12.3794       0.00150332        -92.5949         0.998055        -0.53245  
                        0.998055       -0.532225       0.00150317        -92.5906       0.00186376         -12.409        0.0018693         91.1131  
                      0.00150335        -92.5864         0.998055       -0.532429        0.0018693         91.1158       0.00186291        -12.3828  
0.2386                0.00186645        -12.9452       0.00195061         91.1599         0.998046       -0.555171       0.00156782        -92.6969  
                      0.00195055         91.1596       0.00186581        -12.9222       0.00156797        -92.6989         0.998045       -0.555396  
                        0.998046       -0.555165       0.00156782        -92.6945       0.00186666        -12.9534       0.00195058         91.1579  
                      0.00156801        -92.6908         0.998046       -0.555377       0.00195058         91.1605       0.00186577        -12.9254  
0.2485                0.00186946        -13.4904       0.00203193         91.2046         0.998037       -0.578102       0.00163243        -92.8004  
                      0.00203187         91.2043       0.00186876        -13.4658       0.00163258        -92.8023         0.998036       -0.578334  
                        0.998036       -0.578096       0.00163244        -92.7979       0.00186965        -13.4987        0.0020319         91.2026  
                      0.00163263        -92.7948         0.998036       -0.578315        0.0020319         91.2051       0.00186874        -13.4688  
0.2584                0.00187257        -14.0364       0.00211329         91.2492         0.998027       -0.601024       0.00169702        -92.9034  
                      0.00211323         91.2489       0.00187181        -14.0103       0.00169716        -92.9054         0.998026       -0.601261  
                        0.998027       -0.601018       0.00169702        -92.9009       0.00187275        -14.0449       0.00211326         91.2472  
                      0.00169722        -92.8984         0.998026       -0.601243       0.00211326         91.2496       0.00187181        -14.0131  
0.2683                0.00187578        -14.5834       0.00219469         91.2936         0.998017       -0.623936       0.00176156         -93.006  
                      0.00219463         91.2934       0.00187497        -14.5557       0.00176169         -93.008         0.998015       -0.624179  
                        0.998016        -0.62393       0.00176157        -93.0035       0.00187594        -14.5919       0.00219466         91.2917  
                      0.00176177        -93.0016         0.998016       -0.624162       0.00219466          91.294       0.00187497        -14.5583  
0.2782                0.00187909        -15.1313       0.00227613          91.338         0.998006       -0.646839       0.00182607        -93.1083  
                      0.00227607         91.3378       0.00187821         -15.102        0.0018262        -93.1101         0.998005       -0.647087  
                        0.998006       -0.646833       0.00182608        -93.1057       0.00187923        -15.1398        0.0022761          91.336  
                      0.00182629        -93.1044         0.998005       -0.647071       0.00227611         91.3383       0.00187824        -15.1043  
0.2881                0.00188249          -15.68       0.00235761         91.3822         0.997995       -0.669732       0.00189055        -93.2101  
                      0.00235756         91.3821       0.00188156        -15.6491       0.00189066        -93.2118         0.997994       -0.669985  
                        0.997995       -0.669726       0.00189056        -93.2076       0.00188261        -15.6886       0.00235758         91.3803  
                      0.00189076        -93.2068         0.997994        -0.66997       0.00235759         91.3824       0.00188161        -15.6511  
0.298                 0.00188599        -16.2296       0.00243914         91.4263         0.997984       -0.692615       0.00195498        -93.3116  
                      0.00243909         91.4262       0.00188499         -16.197       0.00195509        -93.3132         0.997983       -0.692874  
                        0.997984       -0.692609       0.00195499         -93.309       0.00188608        -16.2382       0.00243911         91.4245  
                       0.0019552        -93.3088         0.997983        -0.69286       0.00243912         91.4264       0.00188507        -16.1987  
0.3079                0.00188958        -16.7801       0.00252072         91.4703         0.997973       -0.715489       0.00201939        -93.4127  
                      0.00252067         91.4703       0.00188852        -16.7458       0.00201948        -93.4141         0.997972       -0.715752  
                        0.997973       -0.715483        0.0020194        -93.4101       0.00188965        -16.7886       0.00252069         91.4685  
                       0.0020196        -93.4103         0.997972       -0.715739        0.0025207         91.4703       0.00188862        -16.7472  
0.3178                0.00189326        -17.3314       0.00260234         91.5142         0.997961       -0.738353       0.00208375        -93.5134  
                      0.00260229         91.5142       0.00189214        -17.2954       0.00208384        -93.5146          0.99796       -0.738621  
                        0.997961       -0.738347       0.00208376        -93.5108        0.0018933        -17.3398       0.00260231         91.5124  
                      0.00208396        -93.5115          0.99796        -0.73861       0.00260232         91.5141       0.00189227        -17.2964  
0.3277                0.00189703        -17.8834       0.00268401          91.558         0.997949       -0.761208       0.00214808        -93.6138  
                      0.00268396          91.558       0.00189585        -17.8457       0.00214816        -93.6148         0.997948       -0.761481  
                        0.997949       -0.761202       0.00214809        -93.6112       0.00189705        -17.8918       0.00268398         91.5562  
                      0.00214828        -93.6123         0.997948        -0.76147         0.002684         91.5578       0.00189601        -17.8464  
0.3376                0.00190089        -18.4362       0.00276573         91.6016         0.997937       -0.784052       0.00221238        -93.7139  
                      0.00276569         91.6016       0.00189965        -18.3969       0.00221245        -93.7146         0.997936        -0.78433  
                        0.997937       -0.784047       0.00221239        -93.7112       0.00190088        -18.4445        0.0027657         91.5999  
                      0.00221257        -93.7127         0.997936       -0.784321       0.00276572         91.6013       0.00189984        -18.3971  
0.3475                0.00190484        -18.9898       0.00284751         91.6451         0.997925       -0.806888       0.00227664        -93.8136  
                      0.00284746         91.6452       0.00190354        -18.9487        0.0022767         -93.814         0.997923        -0.80717  
                        0.997925       -0.806882       0.00227665        -93.8109        0.0019048        -18.9979       0.00284748         91.6434  
                      0.00227682        -93.8127         0.997924       -0.807162       0.00284749         91.6448       0.00190376        -18.9486  
0.3574                0.00190888         -19.544       0.00292933         91.6885         0.997912       -0.829713       0.00234087         -93.913  
                      0.00292929         91.6886       0.00190751        -19.5013       0.00234091        -93.9132         0.997911       -0.830001  
                        0.997912       -0.829708       0.00234087        -93.9103       0.00190881         -19.552        0.0029293         91.6868  
                      0.00234103        -93.9124         0.997911       -0.829994       0.00292932         91.6881       0.00190776        -19.5007  
0.3673                0.00191299        -20.0989       0.00301121         91.7318         0.997899       -0.852529       0.00240506        -94.0121  
                      0.00301118         91.7319       0.00191156        -20.0546        0.0024051         -94.012         0.997898       -0.852822  
                        0.997899       -0.852524       0.00240506        -94.0094        0.0019129        -20.1067       0.00301118         91.7301  
                      0.00240521        -94.0117         0.997898       -0.852816        0.0030112         91.7312       0.00191185        -20.0536  
0.3772                 0.0019172        -20.6545       0.00309315         91.7749         0.997886       -0.875335       0.00246921        -94.1109  
                      0.00309312          91.775        0.0019157        -20.6085       0.00246924        -94.1105         0.997885       -0.875633  
                        0.997886       -0.875331       0.00246922        -94.1082       0.00191707        -20.6621       0.00309312         91.7733  
                      0.00246936        -94.1107         0.997885       -0.875628       0.00309314         91.7743       0.00191602        -20.6071  
0.3871                0.00192148        -21.2106       0.00317514         91.8179         0.997873       -0.898132       0.00253334        -94.2094  
                      0.00317511          91.818       0.00191992        -21.1631       0.00253336        -94.2088         0.997871       -0.898435  
                        0.997872       -0.898128       0.00253334        -94.2066       0.00192132        -21.2181       0.00317511         91.8163  
                      0.00253347        -94.2094         0.997872       -0.898431       0.00317513         91.8172       0.00192028        -21.1612  
0.397                 0.00192584        -21.7673        0.0032572         91.8608         0.997859       -0.920919       0.00259743        -94.3077  
                      0.00325717         91.8609       0.00192422        -21.7183       0.00259744        -94.3067         0.997858       -0.921227  
                        0.997859       -0.920916       0.00259743        -94.3049       0.00192566        -21.7747       0.00325717         91.8592  
                      0.00259754        -94.3078         0.997858       -0.921224       0.00325719         91.8599       0.00192462         -21.716  
0.4069                0.00193028        -22.3246       0.00333931         91.9035         0.997845       -0.943697       0.00266148        -94.4057  
                      0.00333928         91.9036        0.0019286        -22.2741       0.00266149        -94.4045         0.997844        -0.94401  
                        0.997845       -0.943694       0.00266148        -94.4028       0.00193007        -22.3318       0.00333928         91.9019  
                      0.00266159        -94.4059         0.997844       -0.944008        0.0033393         91.9026       0.00192904        -22.2713  
0.4168                 0.0019348        -22.8823       0.00342148         91.9461         0.997831       -0.966465        0.0027255        -94.5034  
                      0.00342146         91.9462       0.00193306        -22.8304       0.00272551         -94.502          0.99783       -0.966784  
                        0.997831       -0.966463        0.0027255        -94.5006       0.00193456        -22.8893       0.00342145         91.9445  
                       0.0027256        -94.5037          0.99783       -0.966783       0.00342147         91.9451       0.00193353        -22.8271  
0.4267                 0.0019394        -23.4405       0.00350371         91.9885         0.997817       -0.989224       0.00278949         -94.601  
                      0.00350369         91.9886       0.00193759        -23.3872       0.00278949        -94.5993         0.997815       -0.989548  
                        0.997817       -0.989222       0.00278949        -94.5981       0.00193913        -23.4474       0.00350369         91.9869  
                      0.00278957        -94.6013         0.997816       -0.989548        0.0035037         91.9874       0.00193811        -23.3834  
0.4366                0.00194407        -23.9992       0.00358601         92.0308         0.997802        -1.01197       0.00285345        -94.6983  
                      0.00358599         92.0309        0.0019422        -23.9445       0.00285345        -94.6964         0.997801         -1.0123  
                        0.997802        -1.01197       0.00285345        -94.6954       0.00194377        -24.0059       0.00358599         92.0292  
                      0.00285352        -94.6986         0.997801         -1.0123         0.003586         92.0296       0.00194276        -23.9402  
0.4465                0.00194882        -24.5582       0.00366837          92.073         0.997787        -1.03471       0.00291737        -94.7955  
                      0.00366836          92.073       0.00194689        -24.5023       0.00291737        -94.7933         0.997786        -1.03505  
                        0.997787        -1.03471       0.00291737        -94.7925       0.00194849        -24.5648       0.00366835         92.0713  
                      0.00291743        -94.7958         0.997786        -1.03505       0.00366836         92.0717       0.00194748        -24.4974  
0.4564                0.00195364        -25.1175        0.0037508         92.1149         0.997772        -1.05744       0.00298126        -94.8924  
                      0.00375079          92.115       0.00195164        -25.0604       0.00298126          -94.89         0.997771        -1.05779  
                        0.997772        -1.05744       0.00298126        -94.8894       0.00195328         -25.124       0.00375078         92.1133  
                      0.00298131        -94.8927         0.997771        -1.05779       0.00375079         92.1135       0.00195228        -25.0551  
0.4663                0.00195854        -25.6772        0.0038333         92.1568         0.997757        -1.08017       0.00304512        -94.9892  
                      0.00383329         92.1568       0.00195647         -25.619       0.00304511        -94.9865         0.997756        -1.08051  
                        0.997757        -1.08017       0.00304511        -94.9861       0.00195814        -25.6836       0.00383327         92.1551  
                      0.00304516        -94.9894         0.997756        -1.08052       0.00383328         92.1553       0.00195716        -25.6131  
0.4762                 0.0019635        -26.2372       0.00391586         92.1984         0.997742        -1.10288       0.00310895        -95.0858  
                      0.00391585         92.1985       0.00196137        -26.1779       0.00310894         -95.083         0.997741        -1.10323  
                        0.997742        -1.10288       0.00310894        -95.0826       0.00196308        -26.2435       0.00391584         92.1968  
                      0.00310897         -95.086         0.997741        -1.10323       0.00391584         92.1969        0.0019621        -26.1714  
0.4861                0.00196854        -26.7973       0.00399849         92.2399         0.997726        -1.12558       0.00317274        -95.1823  
                      0.00399849           92.24       0.00196635        -26.7371       0.00317273        -95.1792         0.997725        -1.12594  
                        0.997726        -1.12558       0.00317273        -95.1791       0.00196809        -26.8036       0.00399847         92.2382  
                      0.00317276        -95.1824         0.997725        -1.12594       0.00399848         92.2383       0.00196711          -26.73  
0.496                 0.00197364        -27.3577       0.00408119         92.2813          0.99771        -1.14828       0.00323651        -95.2787  
                      0.00408119         92.2813       0.00197139        -27.2965       0.00323649        -95.2754         0.997709        -1.14864  
                         0.99771        -1.14828       0.00323649        -95.2753       0.00197316         -27.364       0.00408118         92.2796  
                      0.00323651        -95.2787         0.997709        -1.14864       0.00408118         92.2796        0.0019722        -27.2889  
0.505900032           0.00197881        -27.9182       0.00416397         92.3225         0.997694        -1.17096       0.00330023        -95.3749  
                      0.00416397         92.3225        0.0019765        -27.8562       0.00330022        -95.3714         0.997693        -1.17133  
                        0.997694        -1.17096       0.00330022        -95.3715       0.00197831        -27.9245       0.00416395         92.3207  
                      0.00330023        -95.3748         0.997693        -1.17134       0.00416395         92.3207       0.00197735         -27.848  
0.5158                0.00198406        -28.4789       0.00424681         92.3635         0.997678        -1.19364       0.00336393         -95.471  
                      0.00424682         92.3634       0.00198167        -28.4161       0.00336392        -95.4673         0.997677        -1.19401  
                        0.997678        -1.19364       0.00336391        -95.4675       0.00198352        -28.4851        0.0042468         92.3617  
                      0.00336392        -95.4709         0.997677        -1.19402       0.00424679         92.3616       0.00198257        -28.4072  
0.525699968           0.00198936        -29.0396       0.00432973         92.4043         0.997661         -1.2163       0.00342759        -95.5669  
                      0.00432974         92.4043       0.00198692        -28.9761       0.00342758        -95.5632          0.99766        -1.21669  
                        0.997662        -1.21631       0.00342757        -95.5634       0.00198881        -29.0459       0.00432972         92.4025  
                      0.00342758        -95.5668          0.99766        -1.21669       0.00432971         92.4024       0.00198786        -28.9666  
0.5356                0.00199474        -29.6003       0.00441273          92.445         0.997645        -1.23896       0.00349123        -95.6628  
                      0.00441274         92.4449       0.00199223        -29.5363       0.00349121        -95.6589         0.997644        -1.23935  
                        0.997645        -1.23896        0.0034912        -95.6592       0.00199415        -29.6067       0.00441272         92.4432  
                       0.0034912        -95.6626         0.997644        -1.23936       0.00441271          92.443       0.00199322        -29.5261  
0.545499968           0.00200018        -30.1611        0.0044958         92.4855         0.997628        -1.26161       0.00355482        -95.7586  
                      0.00449581         92.4854        0.0019976        -30.0966       0.00355481        -95.7545         0.997627        -1.26201  
                        0.997628        -1.26161        0.0035548        -95.7549       0.00199957        -30.1676       0.00449579         92.4836  
                      0.00355479        -95.7583         0.997627        -1.26201       0.00449578         92.4834       0.00199863        -30.0857  
0.5554                0.00200568        -30.7218       0.00457895         92.5258         0.997611        -1.28425       0.00361839        -95.8543  
                      0.00457896         92.5257       0.00200304        -30.6569       0.00361837        -95.8501          0.99761        -1.28466  
                        0.997611        -1.28425       0.00361836        -95.8505       0.00200505        -30.7285       0.00457894         92.5239  
                      0.00361835        -95.8539          0.99761        -1.28466       0.00457892         92.5237       0.00200412        -30.6453  
0.565299968           0.00201125        -31.2825       0.00466218         92.5659         0.997594        -1.30688       0.00368192        -95.9499  
                      0.00466219         92.5658       0.00200854        -31.2172        0.0036819        -95.9456         0.997593        -1.30729  
                        0.997594        -1.30689       0.00368189        -95.9461       0.00201059        -31.2893       0.00466216          92.564  
                      0.00368188        -95.9495         0.997593         -1.3073       0.00466215         92.5638       0.00200966        -31.2049  
0.5752                0.00201688         -31.843       0.00474548         92.6059         0.997576        -1.32951       0.00374541        -96.0454  
                       0.0047455         92.6057       0.00201411        -31.7774        0.0037454         -96.041         0.997575        -1.32992  
                        0.997576        -1.32951       0.00374538        -96.0416        0.0020162          -31.85       0.00474547         92.6039  
                      0.00374537        -96.0449         0.997575        -1.32993       0.00474545         92.6037       0.00201527        -31.7645  
0.585099968           0.00202257        -32.4034       0.00482887         92.6456         0.997559        -1.35212       0.00380887        -96.1409  