! TOUCHSTONE file generated by CST MICROWAVE STUDIO
! Date and time: Thu Oct 23 10:02:00 2014
! Project name: Untitled_1.cst
# GHZ S MA R 50
0.1                   0.00167418        -49.2534      0.000878499          91.237         0.998848       -0.271908      0.000561005        -92.5848  
                     0.000878499          91.237       0.00167255        -49.2056      0.000561005        -92.5854         0.998848       -0.271825  
                        0.998848       -0.271908      0.000561005        -92.5854       0.00167419        -49.2534      0.000878499         91.2372  
                     0.000561005        -92.5848         0.998848       -0.271825      0.000878499         91.2371       0.00167252         -49.206  
0.1099                0.00177145        -51.9597      0.000965572         91.3564         0.998838        -0.29874      0.000615904         -92.808  
                     0.000965521         91.3636       0.00176963        -51.9106       0.00061594        -92.8111         0.998838       -0.298656  
                        0.998837       -0.298744      0.000615898        -92.8103       0.00177144        -51.9591      0.000965507         91.3579  
                     0.000615951         -92.811         0.998838       -0.298655      0.000965531          91.364        0.0017696        -51.9112  
0.1198                0.00187221        -54.3923       0.00105269         91.4792         0.998826       -0.325543      0.000670778        -93.0301  
                      0.00105261          91.492       0.00187022        -54.3427      0.000670847        -93.0354         0.998827       -0.325459  
                        0.998826        -0.32555      0.000670766        -93.0336        0.0018722        -54.3912       0.00105257          91.482  
                     0.000670867        -93.0357         0.998827       -0.325457       0.00105263         91.4924       0.00187019        -54.3434  
0.129700008           0.00197598        -56.5853       0.00113988         91.6046         0.998814       -0.352318      0.000725627        -93.2513  
                      0.00113978         91.6215       0.00197379        -56.5359      0.000725723        -93.2585         0.998815       -0.352235  
                        0.998814       -0.352327      0.000725608        -93.2558       0.00197595        -56.5839       0.00113971         91.6086  
                     0.000725752        -93.2592         0.998815       -0.352233       0.00113981         91.6219       0.00197376        -56.5366  
0.1396                0.00208232         -58.569       0.00122713         91.7318         0.998801       -0.379066      0.000780449        -93.4717  
                      0.00122704         91.7517       0.00207993        -58.5201       0.00078057        -93.4806         0.998803       -0.378984  
                        0.998801       -0.379076      0.000780423        -93.4769       0.00208228        -58.5673       0.00122693          91.737  
                     0.000780605        -93.4816         0.998803        -0.37898       0.00122707         91.7521        0.0020799        -58.5208  
0.1495                 0.0021909        -60.3696       0.00131447         91.8604         0.998788       -0.405786      0.000835245        -93.6915  
                      0.00131439         91.8824       0.00218829        -60.3215      0.000835384        -93.7019         0.998789       -0.405705  
                        0.998787       -0.405796      0.000835211        -93.6973       0.00219085        -60.3677       0.00131425         91.8667  
                     0.000835426        -93.7032         0.998789       -0.405701       0.00131443         91.8827       0.00218827        -60.3223  
0.1594                 0.0023014          -62.01       0.00140191         91.9899         0.998774        -0.43248      0.000890013        -93.9107  
                      0.00140185         92.0132       0.00229859         -61.963      0.000890167        -93.9224         0.998776       -0.432398  
                        0.998773        -0.43249      0.000889971        -93.9169       0.00230135         -62.008       0.00140167         91.9971  
                     0.000890214        -93.9239         0.998775       -0.432394       0.00140189         92.0134       0.00229857        -61.9639  
0.1693                 0.0024136        -63.5099       0.00148946         92.1201         0.998759       -0.459147      0.000944752        -94.1295  
                      0.00148942          92.144       0.00241058        -63.4642      0.000944918        -94.1422         0.998761       -0.459065  
                        0.998759       -0.459157      0.000944702        -94.1358       0.00241355        -63.5078       0.00148921         92.1279  
                     0.000944968         -94.144         0.998761        -0.45906       0.00148947         92.1441       0.00241055        -63.4651  
0.1792                0.00252729        -64.8864       0.00157712         92.2505         0.998744       -0.485789      0.000999461        -94.3478  
                      0.00157712         92.2746       0.00252404         -64.842      0.000999635        -94.3613         0.998746       -0.485705  
                        0.998743       -0.485798      0.000999403        -94.3542       0.00252723        -64.8842       0.00157687         92.2589  
                     0.000999687        -94.3633         0.998746         -0.4857       0.00157717         92.2746       0.00252402         -64.843  
0.1891                0.00264228        -66.1539       0.00166492          92.381         0.998728       -0.512406       0.00105414        -94.5656  
                      0.00166495         92.4047       0.00263881         -66.111       0.00105432        -94.5799          0.99873       -0.512319  
                        0.998728       -0.512413       0.00105407        -94.5721       0.00264222        -66.1516       0.00166467         92.3898  
                      0.00105437         -94.582          0.99873       -0.512314         0.001665         92.4048       0.00263879         -66.112  
0.199                 0.00275844        -67.3251       0.00175285         92.5113         0.998712       -0.538998       0.00110879        -94.7831  
                      0.00175292         92.5344       0.00275474        -67.2837       0.00110897        -94.7979         0.998714       -0.538908  
                        0.998711       -0.539005       0.00110872        -94.7895       0.00275837        -67.3228        0.0017526         92.5204  
                      0.00110902        -94.8001         0.998714       -0.538902       0.00175297         92.5344       0.00275472        -67.2847  
0.2089                0.00287562        -68.4109       0.00184092         92.6413         0.998695       -0.565567       0.00116341        -95.0001  
                      0.00184103         92.6635        0.0028717         -68.371       0.00116358        -95.0154         0.998697       -0.565472  
                        0.998695       -0.565572       0.00116333        -95.0065       0.00287556        -68.4086       0.00184069         92.6505  
                      0.00116364        -95.0176         0.998697       -0.565466       0.00184109         92.6635       0.00287168        -68.3721  
0.2188                0.00299373        -69.4207       0.00192915         92.7707         0.998678       -0.592112       0.00121799        -95.2169  
                       0.0019293         92.7919       0.00298958        -69.3822       0.00121816        -95.2324          0.99868       -0.592011  
                        0.998677       -0.592116       0.00121791        -95.2231       0.00299367        -69.4183       0.00192893         92.7799  
                      0.00121821        -95.2347          0.99868       -0.592005       0.00192935         92.7918       0.00298955        -69.3834  
0.2287                0.00311266        -70.3626       0.00201754         92.8996          0.99866       -0.618635       0.00127255        -95.4333  
                      0.00201772         92.9196       0.00310828        -70.3256       0.00127271        -95.4489         0.998662       -0.618527  
                         0.99866       -0.618637       0.00127245        -95.4393        0.0031126        -70.3603       0.00201734         92.9087  
                      0.00127276        -95.4512         0.998662       -0.618521       0.00201777         92.9195       0.00310826        -70.3269  
0.2386                0.00323234        -71.2438        0.0021061         93.0277         0.998642       -0.645135       0.00132707        -95.6493  
                      0.00210631         93.0464       0.00322773        -71.2083       0.00132722         -95.665         0.998644        -0.64502  
                        0.998642       -0.645137       0.00132697        -95.6552       0.00323228        -71.2415       0.00210591         93.0366  
                      0.00132726        -95.6672         0.998644       -0.645014       0.00210636         93.0462        0.0032277        -71.2096  
0.2485                 0.0033527        -72.0705       0.00219482          93.155         0.998624       -0.671614       0.00138156        -95.8651  
                      0.00219506         93.1723       0.00334784        -72.0363        0.0013817        -95.8807         0.998625       -0.671491  
                        0.998623       -0.671615       0.00138145        -95.8707       0.00335264        -72.0682       0.00219466         93.1636  
                      0.00138174        -95.8828         0.998625       -0.671484       0.00219511         93.1722       0.00334782        -72.0377  
0.2584                0.00347365         -72.848       0.00228373         93.2813         0.998605       -0.698072       0.00143601        -96.0806  
                      0.00228399         93.2973       0.00346856        -72.8152       0.00143614         -96.096         0.998606        -0.69794  
                        0.998604       -0.698072        0.0014359        -96.0859        0.0034736        -72.8457       0.00228358         93.2896  
                      0.00143617         -96.098         0.998606       -0.697933       0.00228404         93.2972       0.00346854        -72.8166  
0.2683                0.00359516        -73.5812       0.00237282         93.4067         0.998585        -0.72451       0.00149043        -96.2958  
                       0.0023731         93.4213       0.00358983        -73.5496       0.00149054        -96.3109         0.998586       -0.724368  
                        0.998584       -0.724508       0.00149032        -96.3009       0.00359511        -73.5789       0.00237269         93.4146  
                      0.00149057        -96.3128         0.998586       -0.724361       0.00237314         93.4212       0.00358981        -73.5511  
0.2782                0.00371717        -74.2741       0.00246209         93.5311         0.998565       -0.750927       0.00154482        -96.5107  
                      0.00246239         93.5443        0.0037116        -74.2438       0.00154491        -96.5255         0.998566       -0.750775  
                        0.998565       -0.750925        0.0015447        -96.5155       0.00371712        -74.2718       0.00246198         93.5386  
                      0.00154494        -96.5272         0.998566       -0.750769       0.00246243         93.5443       0.00371158        -74.2454  
0.2881                0.00383964        -74.9306       0.00255155         93.6543         0.998545       -0.777325       0.00159917        -96.7253  
                      0.00255187         93.6663       0.00383383        -74.9014       0.00159925        -96.7397         0.998546       -0.777162  
                        0.998544       -0.777323       0.00159905        -96.7299       0.00383959        -74.9283       0.00255146         93.6615  
                      0.00159927        -96.7412         0.998546       -0.777156        0.0025519         93.6663        0.0038338        -74.9031  
0.298                 0.00396251        -75.5538       0.00264121         93.7765         0.998524       -0.803705       0.00165348        -96.9398  
                      0.00264153         93.7873       0.00395646        -75.5257       0.00165355        -96.9536         0.998525        -0.80353  
                        0.998523       -0.803702       0.00165337        -96.9441       0.00396248        -75.5515       0.00264114         93.7832  
                      0.00165356        -96.9549         0.998525       -0.803524       0.00264156         93.7873       0.00395644        -75.5275  
0.3079                0.00408577        -76.1467       0.00273107         93.8976         0.998503       -0.830065       0.00170776         -97.154  
                      0.00273139         93.9072       0.00407948        -76.1197       0.00170781        -97.1673         0.998504       -0.829879  
                        0.998502       -0.830062       0.00170765        -97.1581       0.00408574        -76.1444       0.00273101         93.9039  
                      0.00170782        -97.1684         0.998504       -0.829873       0.00273142         93.9073       0.00407945        -76.1215  
0.3178                0.00420937        -76.7118       0.00282113         94.0176         0.998481       -0.856407       0.00176201        -97.3679  
                      0.00282145         94.0261       0.00420284        -76.6858       0.00176204        -97.3807         0.998482       -0.856209  
                        0.998481       -0.856404        0.0017619        -97.3718       0.00420935        -76.7096       0.00282108         94.0234  
                      0.00176205        -97.3815         0.998482       -0.856203       0.00282147         94.0262       0.00420281        -76.6877  
0.3277                0.00433329        -77.2515       0.00291139         94.1364         0.998459       -0.882732       0.00181622        -97.5817  
                       0.0029117         94.1439       0.00432651        -77.2265       0.00181624        -97.5938          0.99846       -0.882521  
                        0.998459       -0.882728       0.00181611        -97.5853       0.00433327        -77.2493       0.00291135         94.1418  
                      0.00181624        -97.5944          0.99846       -0.882516       0.00291173          94.144       0.00432648        -77.2285  
0.3376                 0.0044575        -77.7678       0.00300186         94.2541         0.998437       -0.909039        0.0018704        -97.7952  
                      0.00300216         94.2606       0.00445047        -77.7436        0.0018704        -97.8067         0.998438       -0.908816  
                        0.998437       -0.909035       0.00187029        -97.7987       0.00445748        -77.7656       0.00300183          94.259  
                       0.0018704        -97.8071         0.998438        -0.90881       0.00300218         94.2608       0.00445045        -77.7457  
0.3475                0.00458197        -78.2625       0.00309253         94.3706         0.998414       -0.935329       0.00192453        -98.0086  
                      0.00309283         94.3763       0.00457469        -78.2392       0.00192453        -98.0194         0.998415       -0.935093  
                        0.998414       -0.935325       0.00192443        -98.0119       0.00458195        -78.2603       0.00309252         94.3752  
                      0.00192452        -98.0195         0.998415       -0.935088       0.00309285         94.3765       0.00457467        -78.2414  
0.3574                0.00470667        -78.7374       0.00318342          94.486         0.998391       -0.961602       0.00197864        -98.2218  
                      0.00318371         94.4909       0.00469916        -78.7149       0.00197862        -98.2319         0.998392       -0.961354  
                        0.998391       -0.961598       0.00197854         -98.225       0.00470667        -78.7352       0.00318341         94.4902  
                      0.00197861        -98.2318         0.998392       -0.961348       0.00318372         94.4912       0.00469913        -78.7172  
0.3673                 0.0048316        -79.1939       0.00327452         94.6002         0.998368       -0.987858        0.0020327        -98.4349  
                      0.00327479         94.6044       0.00482384        -79.1722       0.00203268        -98.4443         0.998368       -0.987598  
                        0.998367       -0.987855       0.00203261        -98.4379        0.0048316        -79.1917       0.00327452         94.6041  
                      0.00203266        -98.4439         0.998368       -0.987592        0.0032748         94.6048       0.00482381        -79.1745  
0.3772                0.00495672        -79.6333       0.00336584         94.7134         0.998344         -1.0141       0.00208673        -98.6478  
                      0.00336609         94.7169       0.00494872        -79.6123        0.0020867        -98.6566         0.998344        -1.01383  
                        0.998343         -1.0141       0.00208665        -98.6507       0.00495673        -79.6311       0.00336584         94.7169  
                      0.00208668        -98.6559         0.998344        -1.01382        0.0033661         94.7174       0.00494869        -79.6148  
0.3871                0.00508203        -80.0569       0.00345737         94.8254          0.99832        -1.04032       0.00214073        -98.8606  
                      0.00345761         94.8284       0.00507378        -80.0366       0.00214069        -98.8687          0.99832        -1.04004  
                        0.998319        -1.04032       0.00214065        -98.8633       0.00508204        -80.0548       0.00345738         94.8286  
                      0.00214067        -98.8678          0.99832        -1.04003       0.00345761         94.8289       0.00507375        -80.0392  
0.397                  0.0052075        -80.4659       0.00354913         94.9363         0.998295        -1.06653       0.00219468        -99.0732  
                      0.00354934         94.9388         0.005199        -80.4462       0.00219465        -99.0807         0.998295        -1.06623  
                        0.998295        -1.06653       0.00219462        -99.0759       0.00520751        -80.4637       0.00354913         94.9392  
                      0.00219462        -99.0796         0.998295        -1.06623       0.00354934         94.9394       0.00519898        -80.4489  
0.4069                0.00533311        -80.8612        0.0036411         95.0462          0.99827        -1.09272        0.0022486        -99.2857  
                      0.00364129         95.0482       0.00532438        -80.8421       0.00224856        -99.2926          0.99827        -1.09241  
                         0.99827        -1.09272       0.00224854        -99.2884       0.00533313         -80.859       0.00364111         95.0488  
                      0.00224853        -99.2913          0.99827        -1.09241        0.0036413         95.0488       0.00532435        -80.8449  
0.4168                0.00545886        -81.2437        0.0037333         95.1549         0.998245         -1.1189       0.00230248        -99.4982  
                      0.00373347         95.1566       0.00544988        -81.2251       0.00230244        -99.5045         0.998245        -1.11858  
                        0.998244         -1.1189       0.00230243        -99.5008       0.00545888        -81.2415       0.00373331         95.1573  
                      0.00230241        -99.5029         0.998245        -1.11857       0.00373347         95.1573       0.00544986         -81.228  
0.4267                0.00558473        -81.6142       0.00382572         95.2626         0.998219        -1.14506       0.00235632        -99.7106  
                      0.00382587         95.2639       0.00557551        -81.5962       0.00235629        -99.7163         0.998219        -1.14473  
                        0.998219        -1.14506       0.00235628        -99.7132       0.00558476         -81.612       0.00382573         95.2648  
                      0.00235626        -99.7145         0.998219        -1.14472       0.00382587         95.2647       0.00557548        -81.5992  
0.4366                 0.0057107        -81.9736       0.00391837         95.3693         0.998193        -1.17121       0.00241013        -99.9228  
                       0.0039185         95.3703       0.00570124        -81.9561        0.0024101        -99.9281         0.998193        -1.17086  
                        0.998193        -1.17121        0.0024101        -99.9255       0.00571073        -81.9714       0.00391838         95.3713  
                      0.00241006        -99.9261         0.998193        -1.17086        0.0039185         95.3711       0.00570122        -81.9592  
0.4465                0.00583677        -82.3225       0.00401126          95.475         0.998166        -1.19734       0.00246389        -100.135  
                      0.00401136         95.4757       0.00582707        -82.3055       0.00246387         -100.14         0.998167        -1.19699  
                        0.998166        -1.19734       0.00246387        -100.138       0.00583681        -82.3203       0.00401126         95.4767  
                      0.00246383        -100.138         0.998167        -1.19698       0.00401136         95.4766       0.00582704        -82.3087  
0.4564                0.00596292        -82.6616       0.00410437         95.5796         0.998139        -1.22346       0.00251761        -100.347  
                      0.00410445         95.5802       0.00595298        -82.6451        0.0025176        -100.352          0.99814        -1.22309  
                        0.998139        -1.22346        0.0025176         -100.35       0.00596296        -82.6594       0.00410437         95.5812  
                      0.00251756        -100.349          0.99814        -1.22309       0.00410445         95.5811       0.00595296        -82.6484  
0.4663                0.00608914        -82.9915       0.00419771         95.6833         0.998112        -1.24957        0.0025713        -100.559  
                      0.00419778         95.6836       0.00607896        -82.9753       0.00257129        -100.563         0.998113        -1.24918  
                        0.998112        -1.24957        0.0025713        -100.562       0.00608919        -82.9892       0.00419771         95.6847  
                      0.00257126        -100.561         0.998113        -1.24918       0.00419777         95.6846       0.00607894        -82.9788  
0.4762                0.00621543        -83.3127       0.00429129         95.7859         0.998085        -1.27565       0.00262494        -100.771  
                      0.00429134         95.7862       0.00620501        -83.2969       0.00262494        -100.775         0.998085        -1.27526  
                        0.998085        -1.27566       0.00262495        -100.774       0.00621548        -83.3104       0.00429129         95.7873  
                      0.00262491        -100.772         0.998085        -1.27526       0.00429133         95.7872       0.00620499        -83.3005  
0.4861                0.00634176        -83.6257       0.00438511         95.8876         0.998057        -1.30173       0.00267854        -100.984  
                      0.00438514         95.8878       0.00633111        -83.6103       0.00267855        -100.987         0.998057        -1.30132  
                        0.998057        -1.30173       0.00267856        -100.986       0.00634182        -83.6234       0.00438511         95.8889  
                      0.00267852        -100.984         0.998057        -1.30132       0.00438513         95.8888       0.00633108        -83.6139  
0.496                 0.00646814         -83.931       0.00447917         95.9884         0.998029        -1.32779        0.0027321        -101.196  
                      0.00447918         95.9884       0.00645725        -83.9159       0.00273212        -101.199         0.998029        -1.32737  
                        0.998029        -1.32779       0.00273212        -101.199        0.0064682        -83.9286       0.00447916         95.9895  
                      0.00273209        -101.196         0.998029        -1.32737       0.00447916         95.9895       0.00645723        -83.9197  
0.505900032           0.00659455         -84.229       0.00457347         96.0882            0.998        -1.35383       0.00278561        -101.408  
                      0.00457346         96.0882       0.00658343        -84.2143       0.00278565        -101.411            0.998        -1.35341  
                           0.998        -1.35384       0.00278565        -101.411       0.00659461        -84.2266       0.00457345         96.0893  
                      0.00278562        -101.407            0.998         -1.3534       0.00457344         96.0893        0.0065834        -84.2181  
0.5158                0.00672099        -84.5201       0.00466801         96.1871         0.997971        -1.37987       0.00283908         -101.62  
                      0.00466798          96.187       0.00670963        -84.5057       0.00283913        -101.622         0.997971        -1.37943  
                        0.997971        -1.37987       0.00283912        -101.623       0.00672105        -84.5176       0.00466799         96.1881  
                       0.0028391        -101.619         0.997971        -1.37942       0.00466797         96.1882       0.00670961        -84.5096  
0.525699968           0.00684744        -84.8046       0.00476279         96.2851         0.997942        -1.40588       0.00289251        -101.832  
                      0.00476275          96.285       0.00683585        -84.7905       0.00289257        -101.834         0.997942        -1.40544  
                        0.997942        -1.40589       0.00289256        -101.835       0.00684751        -84.8022       0.00476277          96.286  
                      0.00289254        -101.831         0.997942        -1.40543       0.00476273         96.2862       0.00683583        -84.7946  
0.5356                 0.0069739         -85.083       0.00485782         96.3822         0.997912        -1.43189       0.00294588        -102.044  
                      0.00485777          96.382       0.00696209        -85.0692       0.00294596        -102.046         0.997912        -1.43143  
                        0.997912        -1.43189       0.00294594        -102.047       0.00697397        -85.0805        0.0048578         96.3831  
                      0.00294593        -102.043         0.997912        -1.43143       0.00485775         96.3833       0.00696206        -85.0734  
0.545499968           0.00710037        -85.3555        0.0049531         96.4783         0.997882        -1.45788       0.00299922        -102.256  
                      0.00495303         96.4782       0.00708832        -85.3419       0.00299931        -102.258         0.997882        -1.45741  
                        0.997882        -1.45788       0.00299928        -102.259       0.00710044        -85.3529       0.00495307         96.4792  
                      0.00299928        -102.255         0.997882        -1.45741       0.00495302         96.4795        0.0070883        -85.3462  
0.5554                0.00722683        -85.6224       0.00504864         96.5737         0.997852        -1.48385        0.0030525        -102.468  
                      0.00504855         96.5735       0.00721456        -85.6091       0.00305261         -102.47         0.997852        -1.48338  
                        0.997852        -1.48386       0.00305257        -102.471       0.00722691        -85.6198        0.0050486         96.5745  
                      0.00305258        -102.467         0.997852        -1.48337       0.00504854         96.5748       0.00721453        -85.6135  
0.565299968           0.00735328         -85.884       0.00514442         96.6681         0.997821        -1.50981       0.00310573         -102.68  
                      0.00514432         96.6679       0.00734078        -85.8709       0.00310585        -102.682         0.997821        -1.50933  
                        0.997821        -1.50982       0.00310581        -102.684       0.00735336        -85.8814       0.00514438         96.6689  
                      0.00310583        -102.679         0.997821        -1.50932       0.00514431         96.6693       0.00734076        -85.8755  
0.5752                0.00747971        -86.1406       0.00524046         96.7617          0.99779        -1.53576       0.00315892        -102.892  
                      0.00524035         96.7615       0.00746699        -86.1277       0.00315905        -102.894          0.99779        -1.53527  
                         0.99779        -1.53577         0.003159        -102.896        0.0074798        -86.1379       0.00524041         96.7625  
                      0.00315903        -102.891          0.99779        -1.53526       0.00524034         96.7629       0.00746696        -86.1324  
0.585099968           0.00760612        -86.3923       0.00533676         96.8544         0.997758        -1.56169       0.00321205        -103.104  